    molecula                                                                    
GAUSSIAN              9 MOL ORBITALS     64 PRIMITIVES        5 NUCLEI
  C    1    (CENTRE  1)   0.00000000  0.00000000  0.00000000  CHARGE =  6.0
  H    2    (CENTRE  2)   1.20482504  1.20482504  1.20482504  CHARGE =  1.0
  H    3    (CENTRE  3)  -1.20482504 -1.20482504  1.20482504  CHARGE =  1.0
  H    4    (CENTRE  4)  -1.20482504  1.20482504 -1.20482504  CHARGE =  1.0
  H    5    (CENTRE  5)   1.20482504 -1.20482504 -1.20482504  CHARGE =  1.0
CENTRE ASSIGNMENTS    1  1  1  1  1  1  1  1  1  1  1  1  1  1  1  1  1  1  1  1
CENTRE ASSIGNMENTS    1  1  1  1  1  1  1  1  1  1  1  1  2  2  2  2  2  2  2  2
CENTRE ASSIGNMENTS    3  3  3  3  3  3  3  3  4  4  4  4  4  4  4  4  5  5  5  5
CENTRE ASSIGNMENTS    5  5  5  5
TYPE ASSIGNMENTS      1  1  1  1  1  1  1  1  1  2  2  2  3  3  3  4  4  4  1  2
TYPE ASSIGNMENTS      3  4  1  2  3  4  5  6  7  8  9 10  1  1  1  1  1  2  3  4
TYPE ASSIGNMENTS      1  1  1  1  1  2  3  4  1  1  1  1  1  2  3  4  1  1  1  1
TYPE ASSIGNMENTS      1  2  3  4
EXPONENTS  4.5632400E+03 6.8202400E+02 1.5497300E+02 4.4455300E+01 1.3029000E+01
EXPONENTS  1.8277300E+00 2.0964200E+01 4.8033100E+00 1.4593300E+00 2.0964200E+01
EXPONENTS  4.8033100E+00 1.4593300E+00 2.0964200E+01 4.8033100E+00 1.4593300E+00
EXPONENTS  2.0964200E+01 4.8033100E+00 1.4593300E+00 4.8345600E-01 4.8345600E-01
EXPONENTS  4.8345600E-01 4.8345600E-01 1.4558500E-01 1.4558500E-01 1.4558500E-01
EXPONENTS  1.4558500E-01 6.2600000E-01 6.2600000E-01 6.2600000E-01 6.2600000E-01
EXPONENTS  6.2600000E-01 6.2600000E-01 3.3865000E+01 5.0947900E+00 1.1587900E+00
EXPONENTS  3.2584000E-01 1.0274100E-01 7.5000000E-01 7.5000000E-01 7.5000000E-01
EXPONENTS  3.3865000E+01 5.0947900E+00 1.1587900E+00 3.2584000E-01 1.0274100E-01
EXPONENTS  7.5000000E-01 7.5000000E-01 7.5000000E-01 3.3865000E+01 5.0947900E+00
EXPONENTS  1.1587900E+00 3.2584000E-01 1.0274100E-01 7.5000000E-01 7.5000000E-01
EXPONENTS  7.5000000E-01 3.3865000E+01 5.0947900E+00 1.1587900E+00 3.2584000E-01
EXPONENTS  1.0274100E-01 7.5000000E-01 7.5000000E-01 7.5000000E-01
MO  1                     OCC NO =    1.9999299  ORB. ENERGY =   0.0000000
 -4.38717769E-01 -8.16713849E-01 -1.34348660E+00 -1.80407703E+00 -1.69860653E+00
 -1.39585806E-01 -3.73654313E-01 -9.92869475E-01  1.33845741E-03  1.31691249E-09
  1.23230563E-09  9.54468342E-10 -1.85154303E-09 -1.73258808E-09 -1.34195644E-09
 -4.25229861E-09 -3.97910380E-09 -3.08196970E-09 -1.54430167E-03  4.53831504E-10
 -6.38921528E-10 -1.46719225E-09  1.18892744E-04  4.97937194E-11 -9.39806946E-11
 -2.11014520E-10  1.02796341E-03  1.02796341E-03  1.02796341E-03 -3.48790844E-10
 -1.50571579E-10  1.17652490E-10  1.34354865E-05  2.42357007E-05  3.57298111E-05
  9.17639020E-06  2.60478219E-05  1.70581318E-04  1.70581255E-04  1.70581202E-04
  1.34355934E-05  2.42358936E-05  3.57300954E-05  9.17661058E-06  2.60478616E-05
 -1.70581251E-04 -1.70581315E-04  1.70581176E-04  1.34358474E-05  2.42363517E-05
  3.57307708E-05  9.17710351E-06  2.60479587E-05 -1.70581169E-04  1.70581148E-04
 -1.70581286E-04  1.34361529E-05  2.42369029E-05  3.57315833E-05  9.17768879E-06
  2.60480762E-05  1.70581108E-04 -1.70581130E-04 -1.70581183E-04
MO  2                     OCC NO =    1.9835684  ORB. ENERGY =   0.0000000
 -7.79698309E-02 -1.45148078E-01 -2.38767223E-01 -3.20624307E-01 -3.01879872E-01
 -2.48074787E-02 -1.34567743E-01 -3.57571691E-01  4.82031619E-04 -1.80509149E-07
 -1.68912089E-07 -1.30828941E-07  3.33723195E-07  3.12282687E-07  2.41875012E-07
  6.27401079E-07  5.87092829E-07  4.54726088E-07  1.79502702E-01 -6.22711410E-08
  1.15113740E-07  2.16400332E-07  4.21031687E-02 -8.65035953E-09  1.56412328E-08
  2.90091092E-08 -2.02267957E-03 -2.02267957E-03 -2.02267957E-03  5.27778726E-08
  2.79426802E-08 -1.49963356E-08  2.11246205E-02  3.81058015E-02  5.61779955E-02
  3.57744033E-02  1.44319232E-03 -1.02574846E-02 -1.02574737E-02 -1.02574678E-02
  2.11246056E-02  3.81057746E-02  5.61779560E-02  3.57743747E-02  1.44318660E-03
  1.02574718E-02  1.02574827E-02 -1.02574628E-02  2.11245772E-02  3.81057233E-02
  5.61778803E-02  3.57743202E-02  1.44317567E-03  1.02574622E-02 -1.02574591E-02
  1.02574790E-02  2.11245249E-02  3.81056291E-02  5.61777414E-02  3.57742194E-02
  1.44315564E-03 -1.02574528E-02  1.02574559E-02  1.02574619E-02
MO  3                     OCC NO =    1.9778493  ORB. ENERGY =   0.0000000
 -8.34749628E-08 -1.55396392E-07 -2.55625603E-07 -3.43262282E-07 -3.23194379E-07
 -2.65590336E-08 -1.47366314E-07 -3.91579890E-07  5.27877047E-10 -1.68050104E-01
 -1.57253493E-01 -1.21798908E-01 -4.83492315E-02 -4.52429683E-02 -3.50424277E-02
 -4.66459009E-01 -4.36490705E-01 -3.38078922E-01  2.03529821E-07 -5.79691230E-02
 -1.66781365E-02 -1.60905700E-01  4.62260880E-08 -7.94121309E-03 -2.28474222E-03
 -2.20425328E-02 -2.86349536E-09 -2.86349536E-09 -2.86349536E-09 -3.89451252E-02
 -4.03672645E-03 -1.40306692E-02 -3.47049307E-02 -6.26027435E-02 -9.22929452E-02
 -6.69868704E-02 -1.33006136E-02  7.83541626E-03  1.03687053E-02  1.52004492E-03
 -1.27087780E-02 -2.29248223E-02 -3.37972307E-02 -2.45302725E-02 -4.87062500E-03
 -7.72819743E-03 -5.19490843E-03 -5.70022606E-03  2.97904694E-02  5.37377566E-02
  7.92236178E-02  5.75010518E-02  1.14171400E-02  6.22224392E-03 -1.08020071E-02
 -9.31274109E-05  1.76233304E-02  3.17899737E-02  4.68668007E-02  3.40162450E-02
  6.75410462E-03 -9.34141580E-03  4.76165264E-03 -4.08700774E-03
MO  4                     OCC NO =    1.9778493  ORB. ENERGY =   0.0000000
  8.50031523E-09  1.58241258E-08  2.60305382E-08  3.49546440E-08  3.29111150E-08
  2.70452541E-09  1.52223768E-08  4.04487056E-08 -5.45276809E-11 -3.06663564E-01
 -2.86961540E-01 -2.22262804E-01 -3.63548618E-01 -3.40191934E-01 -2.63491802E-01
  1.48163350E-01  1.38644391E-01  1.07385440E-01 -2.22936629E-08 -1.05784034E-01
 -1.25406613E-01  5.11091588E-02 -4.51321805E-09 -1.44913943E-02 -1.71794983E-02
  7.00146309E-03  5.18683029E-10  5.18683029E-10  5.18683029E-10  1.23703050E-02
 -3.03530353E-02 -2.56036455E-02 -2.65321218E-02 -4.78601623E-02 -7.05584946E-02
 -5.12118474E-02 -1.01683904E-02  2.21914134E-03  1.01525583E-03  1.18448628E-02
  4.15923493E-02  7.50266641E-02  1.10609079E-01  8.02808430E-02  1.59401986E-02
  7.16268276E-03  5.95879726E-03 -1.05170990E-02 -1.04211898E-02 -1.87983396E-02
 -2.77137076E-02 -2.01148022E-02 -3.99390282E-03 -9.91084092E-03 -4.27318235E-03
 -2.85119430E-04 -4.63904600E-03 -8.36817713E-03 -1.23368988E-02 -8.95420713E-03
 -1.77790588E-03 -4.96729464E-03 -9.21672864E-03  1.61287838E-03
MO  5                     OCC NO =    1.9778493  ORB. ENERGY =   0.0000000
 -7.10461109E-08 -1.32258930E-07 -2.17564696E-07 -2.92152873E-07 -2.75072943E-07
 -2.26045749E-08 -1.24902019E-07 -3.31888053E-07  4.47408280E-10  3.54794516E-01
  3.32000252E-01  2.57147028E-01 -3.37130963E-01 -3.15471518E-01 -2.44344884E-01
 -9.28768255E-02 -8.69098253E-02 -6.73150190E-02  1.69996869E-07  1.22386874E-01
 -1.16293806E-01 -3.20379929E-02  3.96427315E-08  1.67658217E-02 -1.59311311E-02
 -4.38889831E-03 -2.00700357E-09 -2.00700357E-09 -2.00700357E-09 -7.75437709E-03
 -2.81473992E-02  2.96221474E-02 -3.82255295E-03 -6.89534015E-03 -1.01655489E-02
 -7.37823215E-03 -1.46499315E-03  8.76344131E-03 -5.88010975E-03 -7.10843009E-04
 -5.61798162E-03 -1.01340373E-02 -1.49402422E-02 -1.08437371E-02 -2.15308824E-03
  5.66457866E-03 -8.97897241E-03 -1.21490245E-04 -3.04454618E-02 -5.49192694E-02
 -8.09654791E-02 -5.87653137E-02 -1.16681785E-02 -2.48508087E-03  2.85890256E-03
 -1.19593652E-02  3.98860757E-02  7.19487900E-02  1.06071481E-01  7.69874173E-02
  1.52862653E-02 -5.58398227E-03  5.95780396E-03  1.11270707E-02
MO  6                     OCC NO =    0.0207483  ORB. ENERGY =   0.0000000
  1.51953148E-05  2.82874890E-05  4.65326533E-05  6.24855437E-05  5.88324949E-05
  4.83465776E-06  2.92727439E-05  7.77831618E-05 -1.04857136E-07 -7.97361273E-01
 -7.46133695E-01 -5.77909387E-01  7.69485844E-01  7.20049162E-01  5.57705908E-01
  3.78709386E-01  3.54378678E-01  2.74479984E-01 -7.64664843E-05 -2.73402527E-01
  2.63844485E-01  1.29853439E-01  1.06075013E-06  8.98352923E-03 -8.66946926E-03
 -4.26675783E-03  7.94221701E-06  7.94221701E-06  7.94221701E-06  4.53428110E-02
  9.21304098E-02 -9.54679295E-02 -1.06778501E-02 -1.92613182E-02 -2.83962600E-02
 -2.82225354E-02 -3.37251350E-03  6.62946355E-03 -9.82549223E-03 -5.72157617E-03
 -1.23754990E-02 -2.23236345E-02 -3.29109214E-02 -3.27091275E-02 -3.90858709E-03
  1.03958601E-02 -6.05909565E-03 -5.99919792E-03 -3.61743026E-02 -6.52532809E-02
 -9.62005359E-02 -9.56052331E-02 -1.14236348E-02  1.42877451E-02 -1.39949990E-02
  1.93670540E-03  5.92487652E-02  1.06876319E-01  1.57563866E-01  1.56581364E-01
  1.87085062E-02  1.80647570E-02 -1.77720109E-02 -1.36680948E-02
MO  7                     OCC NO =    0.0207483  ORB. ENERGY =   0.0000000
 -9.12495460E-06 -1.69869500E-05 -2.79433730E-05 -3.75232601E-05 -3.53295639E-05
 -2.90326546E-06 -1.75785433E-05 -4.67094812E-05  6.29676437E-08  3.30545785E-01
  3.09309414E-01  2.39572096E-01  7.52882244E-01  7.04512283E-01  5.45671994E-01
 -8.33799813E-01 -7.80231190E-01 -6.04319215E-01  4.59182524E-05  1.13338904E-01
  2.58151373E-01 -2.85896724E-01 -6.36852826E-07 -3.72411820E-03 -8.48240341E-03
  9.39406599E-03 -4.76926900E-06 -4.76926900E-06 -4.76926900E-06 -9.98307095E-02
  9.01424634E-02  3.95761905E-02 -7.60451558E-03 -1.37174612E-02 -2.02231535E-02
 -2.00957123E-02 -2.40087492E-03 -4.71603889E-03 -9.15139702E-03  7.51186389E-03
  5.83776881E-02  1.05305021E-01  1.55247357E-01  1.54283794E-01  1.84346013E-02
 -1.30169676E-02 -1.74523257E-02  1.83021176E-02 -3.82533514E-02 -6.90035882E-02
 -1.01729477E-01 -1.01095263E-01 -1.20789858E-02  2.78537637E-03 -1.41634872E-02
  1.50132791E-02 -1.25324997E-02 -2.26068414E-02 -3.33284431E-02 -3.31195199E-02
 -3.95700493E-03 -5.52192688E-03 -5.85618400E-03  1.08070769E-02
MO  8                     OCC NO =    0.0207483  ORB. ENERGY =   0.0000000
 -1.04597528E-05 -1.94718008E-05 -3.20309292E-05 -4.30121621E-05 -4.04975720E-05
 -3.32795509E-06 -2.01497928E-05 -5.35417725E-05  7.21780497E-08 -7.91371456E-01
 -7.40528702E-01 -5.73568103E-01 -4.60840700E-01 -4.31233352E-01 -3.34006899E-01
 -7.29843392E-01 -6.82953593E-01 -5.28973956E-01  5.26342388E-05 -2.71348713E-01
 -1.58014962E-01 -2.50251717E-01 -7.29892743E-07  8.91604513E-03  5.19209505E-03
  8.22283353E-03 -5.46677702E-06 -5.46677702E-06 -5.46677702E-06 -8.73840250E-02
 -5.51763784E-02 -9.47507702E-02  6.03512714E-02  1.08865083E-01  1.60495828E-01
  1.59499880E-01  1.90578715E-02  1.81791259E-02  1.47079068E-02  1.75329605E-02
 -1.59101090E-02 -2.86995667E-02 -4.23107261E-02 -4.20457049E-02 -5.02350330E-03
  1.09140034E-02  7.44278417E-03  5.06172414E-03 -3.22927294E-02 -5.82514766E-02
 -8.58780309E-02 -8.53421258E-02 -1.01967118E-02  1.35930991E-02 -4.42425255E-04
  1.29469336E-02 -1.21629652E-02 -2.19402540E-02 -3.23457175E-02 -3.21426562E-02
 -3.84025190E-03  6.32066953E-03  6.83000429E-03  9.65505801E-03
MO  9                     OCC NO =    0.0207091  ORB. ENERGY =   0.0000000
 -1.14513286E-01 -2.13177111E-01 -3.50674344E-01 -4.70896789E-01 -4.43367078E-01
 -3.64344243E-02 -2.20602385E-01 -5.86181845E-01  7.90214077E-04 -5.98629804E-05
 -5.60170004E-05 -4.33873320E-05  8.42044515E-05  7.87946201E-05  6.10294788E-05
  1.83356190E-04  1.71576217E-04  1.32892412E-04  5.76263249E-01 -2.05260666E-05
  2.88723685E-05  6.28699397E-05 -7.99502549E-03  6.74434286E-07 -9.48743910E-07
 -2.06545300E-06 -5.98541431E-02 -5.98541431E-02 -5.98541431E-02  2.19529885E-05
  1.00818191E-05 -7.16737821E-06 -3.97857317E-02 -7.17677837E-02 -1.05804630E-01
 -8.37972516E-02 -7.10637385E-03 -2.00000189E-02 -2.00015319E-02 -2.00025729E-02
 -3.97842491E-02 -7.17651093E-02 -1.05800687E-01 -8.37933334E-02 -7.10590567E-03
  2.00010338E-02  1.99995208E-02 -2.00023305E-02 -3.97782117E-02 -7.17542187E-02
 -1.05784632E-01 -8.37773771E-02 -7.10399927E-03  2.00000462E-02 -2.00003018E-02
  1.99974921E-02 -3.97694377E-02 -7.17383917E-02 -1.05761299E-01 -8.37541890E-02
 -7.10122867E-03 -1.99973540E-02  1.99970983E-02  1.99960573E-02
END DATA
ALDET    ENERGY =      -40.2928312042   VIRIAL(-V/T)  =   2.00072844
CANONICAL ORBITALS
CANMO  1
  4.38350313E-01  8.16029798E-01  1.34236134E+00  1.80256599E+00  1.69718383E+00
  1.39468894E-01  3.73028777E-01  9.91207310E-01 -1.33621670E-03  0.00000000E+00
  0.00000000E+00  0.00000000E+00  0.00000000E+00  0.00000000E+00  0.00000000E+00
  0.00000000E+00  0.00000000E+00  0.00000000E+00  2.32312463E-03  0.00000000E+00
  0.00000000E+00  0.00000000E+00  8.89564967E-05  0.00000000E+00  0.00000000E+00
  0.00000000E+00 -1.02734661E-03 -1.02734661E-03 -1.02734661E-03  0.00000000E+00
  0.00000000E+00  0.00000000E+00  9.71365429E-05  1.75220465E-04  2.58321151E-04
  1.80961902E-04 -1.77224350E-05 -2.17358221E-04 -2.17358221E-04 -2.17358221E-04
  9.71365429E-05  1.75220465E-04  2.58321151E-04  1.80961902E-04 -1.77224350E-05
  2.17358221E-04  2.17358221E-04 -2.17358221E-04  9.71365429E-05  1.75220465E-04
  2.58321151E-04  1.80961902E-04 -1.77224350E-05  2.17358221E-04 -2.17358221E-04
  2.17358221E-04  9.71365429E-05  1.75220465E-04  2.58321151E-04  1.80961902E-04
 -1.77224350E-05 -2.17358221E-04  2.17358221E-04  2.17358221E-04
CANMO  2
 -8.00893332E-02 -1.49093728E-01 -2.45257781E-01 -3.29340037E-01 -3.10086060E-01
 -2.54818358E-02 -1.36339077E-01 -3.62278456E-01  4.88376667E-04  0.00000000E+00
  0.00000000E+00  0.00000000E+00  0.00000000E+00  0.00000000E+00  0.00000000E+00
  0.00000000E+00  0.00000000E+00  0.00000000E+00  1.79338371E-01  0.00000000E+00
  0.00000000E+00  0.00000000E+00  4.21053888E-02  0.00000000E+00  0.00000000E+00
  0.00000000E+00 -2.00155760E-03 -2.00155760E-03 -2.00155760E-03  0.00000000E+00
  0.00000000E+00  0.00000000E+00  2.11350649E-02  3.81246417E-02  5.62057710E-02
  3.57964190E-02  1.44519378E-03 -1.02511425E-02 -1.02511425E-02 -1.02511425E-02
  2.11350649E-02  3.81246417E-02  5.62057710E-02  3.57964190E-02  1.44519378E-03
  1.02511425E-02  1.02511425E-02 -1.02511425E-02  2.11350649E-02  3.81246417E-02
  5.62057710E-02  3.57964190E-02  1.44519378E-03  1.02511425E-02 -1.02511425E-02
  1.02511425E-02  2.11350649E-02  3.81246417E-02  5.62057710E-02  3.57964190E-02
  1.44519378E-03 -1.02511425E-02  1.02511425E-02  1.02511425E-02
CANMO  3
  0.00000000E+00  0.00000000E+00  0.00000000E+00  0.00000000E+00  0.00000000E+00
  0.00000000E+00  0.00000000E+00  0.00000000E+00  0.00000000E+00 -2.78489577E-01
 -2.60597628E-01 -2.01842936E-01  3.11301871E-01  2.91301852E-01  2.25624544E-01
  2.58592106E-01  2.41978498E-01  1.87421700E-01  0.00000000E+00 -9.60734529E-02
  1.07393052E-01  8.92092145E-02  0.00000000E+00 -1.33886670E-02  1.49661511E-02
  1.24320759E-02  0.00000000E+00  0.00000000E+00  0.00000000E+00  2.14586472E-02
  2.58326412E-02 -2.31097914E-02  1.51423137E-02  2.73145735E-02  4.02688812E-02
  2.93161475E-02  5.79486688E-03 -1.09267900E-02  1.81725111E-03  6.78313893E-04
  1.17322481E-02  2.11633017E-02  3.12002850E-02  2.27141190E-02  4.48985651E-03
 -2.21382532E-03  1.05302158E-02  1.78388658E-03  1.72101875E-02  3.10447228E-02
  4.57681044E-02  3.33196369E-02  6.58622898E-03 -4.37830132E-04  1.14682861E-03
  1.11672738E-02 -4.40847493E-02 -7.95225980E-02 -1.17237271E-01 -8.53499034E-02
 -1.68709524E-02  8.27513455E-03 -7.56613607E-03 -8.70507330E-03
CANMO  4
  0.00000000E+00  0.00000000E+00  0.00000000E+00  0.00000000E+00  0.00000000E+00
  0.00000000E+00  0.00000000E+00  0.00000000E+00  0.00000000E+00  1.78660056E-01
  1.67181793E-01  1.29488761E-01 -1.87087323E-01 -1.75067639E-01 -1.35596653E-01
  4.17629134E-01  3.90797972E-01  3.02688135E-01  0.00000000E+00  6.16342222E-02
 -6.45414642E-02  1.44073877E-01  0.00000000E+00  8.58926215E-03 -8.99441152E-03
  2.00779414E-02  0.00000000E+00  0.00000000E+00  0.00000000E+00  3.46559549E-02
 -1.55249941E-02  1.48256773E-02  2.12634505E-02  3.83562311E-02  5.65471948E-02
  4.11669225E-02  8.13738691E-03 -3.03335980E-03 -1.09363222E-02  2.13021418E-03
  2.21392666E-02  3.99360783E-02  5.88763060E-02  4.28625388E-02  8.47255614E-03
  1.10381754E-02  3.13521299E-03  1.84626707E-03 -4.07067735E-02 -7.34292117E-02
 -1.08254013E-01 -7.88100026E-02 -1.55782226E-02 -9.33705280E-03  9.15495888E-03
 -4.17347882E-03 -2.69594360E-03 -4.86309762E-03 -7.16948774E-03 -5.21945867E-03
 -1.03172042E-03  4.73448241E-03 -4.91657634E-03  8.14996006E-03
CANMO  5
  0.00000000E+00  0.00000000E+00  0.00000000E+00  0.00000000E+00  0.00000000E+00
  0.00000000E+00  0.00000000E+00  0.00000000E+00  0.00000000E+00  3.63124380E-01
  3.39794952E-01  2.63184324E-01  3.30793976E-01  3.09541659E-01  2.39751980E-01
 -7.15578132E-03 -6.69604825E-03 -5.18634819E-03  0.00000000E+00  1.25270804E-01
  1.14117447E-01 -2.46860449E-03  0.00000000E+00  1.74575705E-02  1.59032537E-02
 -3.44021396E-04  0.00000000E+00  0.00000000E+00  0.00000000E+00 -5.93805398E-04
  2.74501469E-02  3.01330082E-02  3.56864014E-02  6.43731767E-02  9.49030304E-02
  6.90903535E-02  1.36569582E-02 -3.72355363E-03 -4.42213957E-03 -1.17244591E-02
 -3.64300764E-02 -6.57146603E-02 -9.68807308E-02 -7.05301393E-02 -1.39415578E-02
 -3.96465948E-03 -4.66324542E-03  1.16563249E-02 -1.30815475E-03 -2.35972454E-03
 -3.47885596E-03 -2.53264188E-03 -5.00622482E-04  7.42217040E-03  7.57181456E-03
 -5.78735083E-04  2.05182977E-03  3.70120817E-03  5.45655643E-03  3.97242756E-03
  7.85222168E-04  7.18106454E-03  7.81292042E-03  5.10600877E-04
CANMO  6
 -1.14457719E-01 -2.13073668E-01 -3.50504181E-01 -4.70668289E-01 -4.43151937E-01
 -3.64167448E-02 -2.20573399E-01 -5.86104824E-01  7.90110246E-04  0.00000000E+00
  0.00000000E+00  0.00000000E+00  0.00000000E+00  0.00000000E+00  0.00000000E+00
  0.00000000E+00  0.00000000E+00  0.00000000E+00  5.76311808E-01  0.00000000E+00
  0.00000000E+00  0.00000000E+00 -7.98371471E-03  0.00000000E+00  0.00000000E+00
  0.00000000E+00 -5.98548647E-02 -5.98548647E-02 -5.98548647E-02  0.00000000E+00
  0.00000000E+00  0.00000000E+00 -3.97737232E-02 -7.17461221E-02 -1.05772695E-01
 -8.37709085E-02 -7.10399276E-03 -2.00024029E-02 -2.00024029E-02 -2.00024029E-02
 -3.97737232E-02 -7.17461221E-02 -1.05772695E-01 -8.37709085E-02 -7.10399276E-03
  2.00024029E-02  2.00024029E-02 -2.00024029E-02 -3.97737232E-02 -7.17461221E-02
 -1.05772695E-01 -8.37709085E-02 -7.10399276E-03  2.00024029E-02 -2.00024029E-02
  2.00024029E-02 -3.97737232E-02 -7.17461221E-02 -1.05772695E-01 -8.37709085E-02
 -7.10399276E-03 -2.00024029E-02  2.00024029E-02  2.00024029E-02
CANMO  7
  0.00000000E+00  0.00000000E+00  0.00000000E+00  0.00000000E+00  0.00000000E+00
  0.00000000E+00  0.00000000E+00  0.00000000E+00  0.00000000E+00 -4.04019044E-01
 -3.78062282E-01 -2.92823850E-01 -1.10210821E+00 -1.03130174E+00 -7.98783061E-01
  1.63635295E-02  1.53122319E-02  1.18599155E-02  0.00000000E+00 -1.38533804E-01
 -3.77901104E-01  5.61087907E-03  0.00000000E+00  4.49286301E-03  1.22559104E-02
 -1.81969391E-04  0.00000000E+00  0.00000000E+00  0.00000000E+00  1.95772170E-03
 -1.31855486E-01 -4.83365672E-02  4.50619158E-02  8.12852670E-02  1.19835909E-01
  1.19225569E-01  1.42166310E-02  1.16731297E-02  1.89492248E-02  7.29153540E-03
 -4.60518337E-02 -8.30709377E-02 -1.22468459E-01 -1.21844710E-01 -1.45289413E-02
  1.18370566E-02  1.91131516E-02 -7.79657225E-03  2.16105458E-02  3.89823414E-02
  5.74702464E-02  5.71775426E-02  6.81793375E-03  6.32411096E-04  1.50657627E-02
 -3.74918327E-03 -2.06206277E-02 -3.71966704E-02 -5.48376967E-02 -5.45584011E-02
 -6.50562345E-03  7.96337937E-04  1.49018358E-02  3.24414643E-03
CANMO  8
  0.00000000E+00  0.00000000E+00  0.00000000E+00  0.00000000E+00  0.00000000E+00
  0.00000000E+00  0.00000000E+00  0.00000000E+00  0.00000000E+00 -1.10147788E+00
 -1.03071191E+00 -7.98326217E-01  4.04342565E-01  3.78365017E-01  2.93058331E-01
  3.73525253E-02  3.49527606E-02  2.70722641E-02  0.00000000E+00 -3.77684973E-01
  1.38644737E-01  1.28077810E-02  0.00000000E+00  1.22489010E-02 -4.49646073E-03
 -4.15375912E-04  0.00000000E+00  0.00000000E+00  0.00000000E+00  4.46883107E-03
  4.83752731E-02 -1.31780074E-01  1.99569074E-02  3.59994137E-02  5.30726247E-02
  5.28023188E-02  6.29622563E-03  1.47853564E-02 -9.09619665E-04  2.91547110E-03
 -2.22165628E-02 -4.00755097E-02 -5.90818647E-02 -5.87809529E-02 -7.00912669E-03
  1.51595472E-02 -5.35428892E-04 -4.06830317E-03 -4.44177670E-02 -8.01233146E-02
 -1.18122885E-01 -1.17521270E-01 -1.40134079E-02  1.88359863E-02 -1.15698331E-02
  6.96610105E-03  4.66774225E-02  8.41994107E-02  1.24132125E-01  1.23499904E-01
  1.47263089E-02  1.92101771E-02 -1.19440239E-02 -8.11893312E-03
CANMO  9
  0.00000000E+00  0.00000000E+00  0.00000000E+00  0.00000000E+00  0.00000000E+00
  0.00000000E+00  0.00000000E+00  0.00000000E+00  0.00000000E+00 -4.07030029E-02
 -3.80879822E-02 -2.95006144E-02 -2.49836194E-03 -2.33785122E-03 -1.81075613E-03
 -1.17323428E+00 -1.09785822E+00 -8.50333627E-01  0.00000000E+00 -1.39566239E-02
 -8.56661559E-04 -4.02289473E-01  0.00000000E+00  4.52634635E-04  2.77828603E-05
  1.30468625E-02  0.00000000E+00  0.00000000E+00  0.00000000E+00 -1.40364962E-01
 -2.98902356E-04 -4.86967995E-03  3.67943720E-02  6.63717977E-02  9.78495245E-02
  9.73511636E-02  1.16082950E-02  6.51725728E-03  6.11905516E-03  1.83214875E-02
  3.41808887E-02  6.16574465E-02  9.08993283E-02  9.04363661E-02  1.07837644E-02
 -5.23598942E-03 -5.63419154E-03  1.78887041E-02 -3.66432327E-02 -6.60991638E-02
 -9.74475904E-02 -9.69512764E-02 -1.15606119E-02  6.49222916E-03 -6.04194679E-03
  1.82964593E-02 -3.43320282E-02 -6.19300807E-02 -9.13012629E-02 -9.08362531E-02
 -1.08314475E-02 -5.26101754E-03  5.71129990E-03  1.79137322E-02
END DATA
NELACTIVE, NDETS, NORBCORE, NORBACTIVE
    10  5519     0     9
COEFFICIENT/ OCCUPIED ACTIVE SPIN ORBITALS
  0.9793206771E+00   1   2   3   4   5  -1  -2  -3  -4  -5
 -0.4990119574E-01   1   2   3   4   7  -1  -2  -3  -4  -7
 -0.4139766257E-01   1   2   4   5   8  -1  -2  -4  -5  -8
 -0.4117339482E-01   1   2   3   5   9  -1  -2  -3  -5  -9
 -0.3153555005E-01   1   3   4   5   6  -1  -3  -4  -5  -6
 -0.3136450371E-01   1   3   4   5   6  -1  -2  -3  -4  -7
 -0.3136450371E-01   1   2   3   4   7  -1  -3  -4  -5  -6
  0.3046809483E-01   1   3   4   5   6  -1  -2  -3  -5  -9
  0.3046809483E-01   1   2   3   5   9  -1  -3  -4  -5  -6
  0.2843516308E-01   1   2   3   4   7  -1  -2  -3  -5  -9
  0.2843516308E-01   1   2   3   5   9  -1  -2  -3  -4  -7
  0.2712559708E-01   1   2   4   5   8  -1  -3  -4  -5  -6
  0.2712559708E-01   1   3   4   5   6  -1  -2  -4  -5  -8
 -0.2541282211E-01   1   2   3   4   6  -1  -2  -3  -4  -6
 -0.2541280098E-01   1   2   4   5   6  -1  -2  -4  -5  -6
 -0.2541277987E-01   1   2   3   5   6  -1  -2  -3  -5  -6
 -0.2342798813E-01   1   2   3   4   7  -1  -2  -3  -4  -8
 -0.2342798813E-01   1   2   3   4   8  -1  -2  -3  -4  -7
 -0.2321535911E-01   1   2   4   5   9  -1  -2  -4  -5  -9
 -0.2310137339E-01   1   2   3   5   8  -1  -2  -3  -5  -8
 -0.2304334082E-01   1   2   3   5   8  -1  -2  -3  -5  -9
 -0.2304334082E-01   1   2   3   5   9  -1  -2  -3  -5  -8
  0.2296968278E-01   1   2   4   5   9  -1  -2  -4  -5  -8
  0.2296968278E-01   1   2   4   5   8  -1  -2  -4  -5  -9
 -0.2004460855E-01   1   3   4   5   7  -1  -2  -3  -4  -6
 -0.2004460855E-01   1   2   3   4   6  -1  -3  -4  -5  -7
  0.1947172819E-01   1   2   3   5   6  -1  -3  -4  -5  -9
  0.1947172819E-01   1   3   4   5   9  -1  -2  -3  -5  -6
 -0.1935234097E-01   1   2   4   5   8  -1  -2  -3  -5  -9
 -0.1935234097E-01   1   2   3   5   9  -1  -2  -4  -5  -8
 -0.1795964469E-01   1   3   4   5   6  -1  -2  -4  -5  -9
 -0.1795964469E-01   1   2   4   5   9  -1  -3  -4  -5  -6
  0.1733558007E-01   1   2   4   5   6  -1  -3  -4  -5  -8
  0.1733558007E-01   1   3   4   5   8  -1  -2  -4  -5  -6
  0.1711328767E-01   1   2   4   5   7  -1  -2  -4  -5  -8
  0.1711328767E-01   1   2   4   5   8  -1  -2  -4  -5  -7
 -0.1704164414E-01   1   2   3   4   7  -1  -2  -4  -5  -9
 -0.1704164414E-01   1   2   4   5   9  -1  -2  -3  -4  -7
 -0.1676128888E-01   1   3   4   5   7  -1  -3  -4  -5  -7
 -0.1676128776E-01   1   3   4   5   8  -1  -3  -4  -5  -8
 -0.1676126855E-01   1   3   4   5   9  -1  -3  -4  -5  -9
 -0.1634390228E-01   1   2   3   4   8  -1  -3  -4  -5  -6
 -0.1634390228E-01   1   3   4   5   6  -1  -2  -3  -4  -8
  0.1624284160E-01   1   2   3   5   7  -1  -2  -3  -4  -9
  0.1624284160E-01   1   2   3   4   9  -1  -2  -3  -5  -7
  0.1575214014E-01   1   2   3   5   8  -1  -3  -4  -5  -6
  0.1575214014E-01   1   3   4   5   6  -1  -2  -3  -5  -8
  0.1515694493E-01   1   2   3   5   9  -1  -2  -4  -5  -9
  0.1515694493E-01   1   2   4   5   9  -1  -2  -3  -5  -9
 -0.1513941219E-01   1   2   4   5   8  -1  -2  -3  -5  -8
 -0.1513941219E-01   1   2   3   5   8  -1  -2  -4  -5  -8
  0.1504577525E-01   1   2   4   5   8  -1  -2  -3  -4  -7
  0.1504577525E-01   1   2   3   4   7  -1  -2  -4  -5  -8
  0.1478540201E-01   1   2   3   5   9  -1  -2  -3  -4  -8
  0.1478540201E-01   1   2   3   4   8  -1  -2  -3  -5  -9
 -0.1471181861E-01   1   2   3   5   7  -1  -2  -3  -5  -7
 -0.1459780094E-01   1   2   3   4   9  -1  -2  -3  -4  -9
 -0.1448753310E-01   1   2   3   4   8  -1  -2  -3  -4  -8
 -0.1437354659E-01   1   2   4   5   7  -1  -2  -4  -5  -7
  0.1426642926E-01   1   2   3   4   9  -1  -2  -3  -4  -6
  0.1426642926E-01   1   2   3   4   6  -1  -2  -3  -4  -9
  0.1409766345E-01   1   2   3   4   5  -1  -2  -5  -8  -9
  0.1409766345E-01   1   2   5   8   9  -1  -2  -3  -4  -5
 -0.1388177522E-01   1   3   4   5   6  -1  -2  -4  -5  -7
 -0.1388177522E-01   1   2   4   5   7  -1  -3  -4  -5  -6
  0.1369474596E-01   1   2   3   4   5  -1  -2  -4  -7  -8
  0.1369474596E-01   1   2   4   7   8  -1  -2  -3  -4  -5
  0.1331632525E-01   1   2   4   5   8  -1  -2  -3  -4  -8
  0.1331632525E-01   1   2   3   4   8  -1  -2  -4  -5  -8
 -0.1274856865E-01   1   2   4   5   7  -1  -2  -3  -4  -7
 -0.1274856865E-01   1   2   3   4   7  -1  -2  -4  -5  -7
  0.1226067071E-01   1   2   4   5   6  -1  -2  -4  -5  -8
  0.1226067071E-01   1   2   4   5   8  -1  -2  -4  -5  -6
  0.1219697900E-01   1   2   3   5   7  -1  -2  -3  -5  -9
  0.1219697900E-01   1   2   3   5   9  -1  -2  -3  -5  -7
  0.1219237460E-01   1   2   3   4   5  -1  -2  -3  -7  -9
  0.1219237460E-01   1   2   3   7   9  -1  -2  -3  -4  -5
 -0.1172010026E-01   1   2   4   5   9  -1  -2  -4  -5  -7
 -0.1172010026E-01   1   2   4   5   7  -1  -2  -4  -5  -9
 -0.1164843755E-01   1   2   3   5   8  -1  -2  -3  -5  -6
 -0.1164843755E-01   1   2   3   5   6  -1  -2  -3  -5  -8
 -0.1147776122E-01   1   3   4   5   9  -1  -2  -4  -5  -6
 -0.1147776122E-01   1   2   4   5   6  -1  -3  -4  -5  -9
  0.1131996023E-01   1   2   3   4   5  -1  -3  -4  -6  -7
  0.1131996023E-01   1   3   4   6   7  -1  -2  -3  -4  -5
 -0.1125647562E-01   1   2   3   5   6  -1  -2  -3  -4  -7
 -0.1125647562E-01   1   2   3   4   7  -1  -2  -3  -5  -6
 -0.1125642871E-01   1   2   3   5   7  -1  -2  -3  -4  -6
 -0.1125642871E-01   1   2   3   4   6  -1  -2  -3  -5  -7
 -0.1099642919E-01   1   3   5   6   9  -1  -2  -3  -4  -5
 -0.1099642919E-01   1   2   3   4   5  -1  -3  -5  -6  -9
  0.1048650851E-01   1   2   4   5   8  -1  -2  -3  -5  -7
  0.1048650851E-01   1   2   3   5   7  -1  -2  -4  -5  -8
 -0.1044516028E-01   1   3   4   5   8  -1  -2  -3  -4  -6
 -0.1044516028E-01   1   2   3   4   6  -1  -3  -4  -5  -8
  0.1028771991E-01   1   2   3   5   8  -1  -2  -4  -5  -7
  0.1028771991E-01   1   2   4   5   7  -1  -2  -3  -5  -8
  0.1019587260E-01   1   2   4   5   7  -1  -2  -3  -5  -9
  0.1019587260E-01   1   2   3   5   9  -1  -2  -4  -5  -7
  0.1006696699E-01   1   2   3   5   6  -1  -3  -4  -5  -8
  0.1006696699E-01   1   3   4   5   8  -1  -2  -3  -5  -6
 -0.9990384847E-02   1   2   4   5   9  -1  -2  -4  -5  -6
 -0.9990384847E-02   1   2   4   5   6  -1  -2  -4  -5  -9
 -0.9961430994E-02   1   2   4   5   7  -1  -2  -3  -4  -9
 -0.9961430994E-02   1   2   3   4   9  -1  -2  -4  -5  -7
 -0.9790062999E-02   1   2   3   4   5  -1  -4  -5  -6  -8
 -0.9790062999E-02   1   4   5   6   8  -1  -2  -3  -4  -5
 -0.8894462852E-02   1   2   3   4   8  -1  -2  -4  -5  -9
 -0.8894462852E-02   1   2   4   5   9  -1  -2  -3  -4  -8
 -0.8871645585E-02   1   2   4   5   6  -1  -3  -4  -5  -7
 -0.8871645585E-02   1   3   4   5   7  -1  -2  -4  -5  -6
 -0.8638002565E-02   1   3   4   5   6  -1  -2  -3  -5  -7
 -0.8638002565E-02   1   2   3   5   7  -1  -3  -4  -5  -6
  0.8545881250E-02   1   2   3   5   8  -1  -2  -3  -4  -9
  0.8545881250E-02   1   2   3   4   9  -1  -2  -3  -5  -8
  0.8313580184E-02   1   2   3   4   7  -1  -2  -3  -5  -8
  0.8313580184E-02   1   2   3   5   8  -1  -2  -3  -4  -7
 -0.8145445312E-02   1   2   3   5   7  -1  -2  -3  -4  -7
 -0.8145445312E-02   1   2   3   4   7  -1  -2  -3  -5  -7
  0.8072477345E-02   1   2   3   7   8  -1  -2  -3  -4  -5
  0.8072477345E-02   1   2   3   4   5  -1  -2  -3  -7  -8
 -0.7346228084E-02   1   2   5   7   9  -1  -2  -3  -4  -5
 -0.7346228084E-02   1   2   3   4   5  -1  -2  -5  -7  -9
  0.7224935381E-02   1   2   3   5   8  -1  -2  -3  -4  -8
  0.7224935381E-02   1   2   3   4   8  -1  -2  -3  -5  -8
 -0.7080245194E-02   1   2   4   7   9  -1  -2  -3  -4  -5
 -0.7080245194E-02   1   2   3   4   5  -1  -2  -4  -7  -9
  0.7040919808E-02   1   2   4   5   6  -1  -2  -3  -4  -7
  0.7040919808E-02   1   2   3   4   7  -1  -2  -4  -5  -6
  0.7040886396E-02   1   2   3   4   6  -1  -2  -4  -5  -7
  0.7040886396E-02   1   2   4   5   7  -1  -2  -3  -4  -6
 -0.6806467092E-02   1   2   3   4   5  -1  -2  -3  -4  -7
 -0.6806467092E-02   1   2   3   4   7  -1  -2  -3  -4  -5
  0.6611923643E-02   1   2   3   4   5  -1  -2  -3  -5  -9
  0.6611923643E-02   1   2   3   5   9  -1  -2  -3  -4  -5
 -0.6560923739E-02   1   2   3   5   9  -1  -2  -4  -5  -6
 -0.6560923739E-02   1   2   4   5   6  -1  -2  -3  -5  -9
 -0.6560909682E-02   1   2   3   5   6  -1  -2  -4  -5  -9
 -0.6560909682E-02   1   2   4   5   9  -1  -2  -3  -5  -6