    molecula                                                                    
GAUSSIAN             10 MOL ORBITALS     80 PRIMITIVES        4 NUCLEI
  N    1    (CENTRE  1)  -1.51178079  0.00000000  0.00000000  CHARGE =  7.0
  N    2    (CENTRE  2)   1.51178079  0.00000000  0.00000000  CHARGE =  7.0
  H    3    (CENTRE  3)  -1.78851470 -1.89098960  0.00000000  CHARGE =  1.0
  H    4    (CENTRE  4)   1.78851470  1.89098960  0.00000000  CHARGE =  1.0
CENTRE ASSIGNMENTS    1  1  1  1  1  1  1  1  1  1  1  1  1  1  1  1  1  1  1  1
CENTRE ASSIGNMENTS    1  1  1  1  1  1  1  1  1  1  1  1  2  2  2  2  2  2  2  2
CENTRE ASSIGNMENTS    2  2  2  2  2  2  2  2  2  2  2  2  2  2  2  2  2  2  2  2
CENTRE ASSIGNMENTS    2  2  2  2  3  3  3  3  3  3  3  3  4  4  4  4  4  4  4  4
TYPE ASSIGNMENTS      1  1  1  1  1  1  1  1  1  2  2  2  3  3  3  4  4  4  1  2
TYPE ASSIGNMENTS      3  4  1  2  3  4  5  6  7  8  9 10  1  1  1  1  1  1  1  1
TYPE ASSIGNMENTS      1  2  2  2  3  3  3  4  4  4  1  2  3  4  1  2  3  4  5  6
TYPE ASSIGNMENTS      7  8  9 10  1  1  1  1  1  2  3  4  1  1  1  1  1  2  3  4
EXPONENTS  6.2934800E+03 9.4904400E+02 2.1877600E+02 6.3691600E+01 1.8828200E+01
EXPONENTS  2.7202300E+00 3.0633100E+01 7.0261400E+00 2.1120500E+00 3.0633100E+01
EXPONENTS  7.0261400E+00 2.1120500E+00 3.0633100E+01 7.0261400E+00 2.1120500E+00
EXPONENTS  3.0633100E+01 7.0261400E+00 2.1120500E+00 6.8400900E-01 6.8400900E-01
EXPONENTS  6.8400900E-01 6.8400900E-01 2.0087800E-01 2.0087800E-01 2.0087800E-01
EXPONENTS  2.0087800E-01 9.1300000E-01 9.1300000E-01 9.1300000E-01 9.1300000E-01
EXPONENTS  9.1300000E-01 9.1300000E-01 6.2934800E+03 9.4904400E+02 2.1877600E+02
EXPONENTS  6.3691600E+01 1.8828200E+01 2.7202300E+00 3.0633100E+01 7.0261400E+00
EXPONENTS  2.1120500E+00 3.0633100E+01 7.0261400E+00 2.1120500E+00 3.0633100E+01
EXPONENTS  7.0261400E+00 2.1120500E+00 3.0633100E+01 7.0261400E+00 2.1120500E+00
EXPONENTS  6.8400900E-01 6.8400900E-01 6.8400900E-01 6.8400900E-01 2.0087800E-01
EXPONENTS  2.0087800E-01 2.0087800E-01 2.0087800E-01 9.1300000E-01 9.1300000E-01
EXPONENTS  9.1300000E-01 9.1300000E-01 9.1300000E-01 9.1300000E-01 3.3865000E+01
EXPONENTS  5.0947900E+00 1.1587900E+00 3.2584000E-01 1.0274100E-01 7.5000000E-01
EXPONENTS  7.5000000E-01 7.5000000E-01 3.3865000E+01 5.0947900E+00 1.1587900E+00
EXPONENTS  3.2584000E-01 1.0274100E-01 7.5000000E-01 7.5000000E-01 7.5000000E-01
MO  1                     OCC NO =    2.0000000  ORB. ENERGY =   0.0000000
 -3.93376981E-01 -7.23027747E-01 -1.18171164E+00 -1.58625112E+00 -1.53906050E+00
 -1.53376070E-01 -3.47715190E-01 -9.49157417E-01  1.07411665E-03 -7.16675978E-03
 -7.04908379E-03 -5.40340287E-03 -9.45859792E-03 -9.30329066E-03 -7.13134202E-03
  0.00000000E+00  0.00000000E+00  0.00000000E+00  4.33462674E-03 -8.10855899E-04
 -5.76832472E-03  0.00000000E+00  1.69186254E-03 -2.66432609E-05 -6.06865160E-04
  0.00000000E+00 -1.61107685E-04  1.30905630E-03  1.02338809E-05 -6.39471391E-06
  0.00000000E+00  0.00000000E+00  3.93376981E-01  7.23027747E-01  1.18171164E+00
  1.58625112E+00  1.53906050E+00  1.53376070E-01  3.47715190E-01  9.49157417E-01
 -1.07411665E-03 -7.16675978E-03 -7.04908379E-03 -5.40340287E-03 -9.45859792E-03
 -9.30329066E-03 -7.13134202E-03  0.00000000E+00  0.00000000E+00  0.00000000E+00
 -4.33462674E-03 -8.10855899E-04 -5.76832472E-03  0.00000000E+00 -1.69186254E-03
 -2.66432609E-05 -6.06865160E-04  0.00000000E+00  1.61107685E-04 -1.30905630E-03
 -1.02338809E-05  6.39471391E-06  0.00000000E+00  0.00000000E+00  1.16813327E-03
  2.10714576E-03  3.10648826E-03  1.78471084E-03  9.20619970E-05  6.29646984E-05
  6.53597379E-04  0.00000000E+00 -1.16813327E-03 -2.10714576E-03 -3.10648826E-03
 -1.78471084E-03 -9.20619970E-05  6.29646984E-05  6.53597379E-04  0.00000000E+00
MO  2                     OCC NO =    2.0000000  ORB. ENERGY =   0.0000000
 -3.94184528E-01 -7.24512020E-01 -1.18413753E+00 -1.58950747E+00 -1.54221997E+00
 -1.53690930E-01 -3.49223826E-01 -9.53275537E-01  1.07877693E-03 -7.38428975E-03
 -7.26304199E-03 -5.56741033E-03 -6.89734622E-03 -6.78409392E-03 -5.20027760E-03
  0.00000000E+00  0.00000000E+00  0.00000000E+00  6.66105229E-03 -7.69555649E-04
 -4.80527524E-03  0.00000000E+00  1.98556552E-03 -3.55086527E-04 -4.74656835E-04
  0.00000000E+00  2.82086741E-04  1.20129610E-03 -6.61328602E-05  6.80793593E-04
  0.00000000E+00  0.00000000E+00 -3.94184528E-01 -7.24512020E-01 -1.18413753E+00
 -1.58950747E+00 -1.54221997E+00 -1.53690930E-01 -3.49223826E-01 -9.53275537E-01
  1.07877693E-03  7.38428975E-03  7.26304199E-03  5.56741033E-03  6.89734622E-03
  6.78409392E-03  5.20027760E-03  0.00000000E+00  0.00000000E+00  0.00000000E+00
  6.66105229E-03  7.69555649E-04  4.80527524E-03  0.00000000E+00  1.98556552E-03
  3.55086527E-04  4.74656835E-04  0.00000000E+00  2.82086741E-04  1.20129610E-03
 -6.61328602E-05  6.80793593E-04  0.00000000E+00  0.00000000E+00  1.23486543E-03
  2.22752106E-03  3.28395319E-03  1.95572389E-03  8.99153878E-05 -3.63446844E-05
  7.97791798E-04  0.00000000E+00  1.23486543E-03  2.22752106E-03  3.28395319E-03
  1.95572389E-03  8.99153878E-05  3.63446844E-05 -7.97791798E-04  0.00000000E+00
MO  3                     OCC NO =    1.9997927  ORB. ENERGY =   0.0000000
  3.59628432E-03  6.60997841E-03  1.08033039E-02  1.45016366E-02  1.40702161E-02
  1.40217650E-03  1.58754166E-02  4.33350911E-02 -4.90402773E-05 -9.59181857E-03
 -9.43432386E-03 -7.23178417E-03  5.99251949E-01  5.89412416E-01  4.51808041E-01
  0.00000000E+00  0.00000000E+00  0.00000000E+00 -3.54040159E-02 -7.24015922E-04
  2.10374184E-01  0.00000000E+00  3.86675075E-03 -5.82645819E-03  3.15039798E-02
  0.00000000E+00  1.32190386E-02 -3.32260366E-02  1.30085676E-02  2.03031700E-02
  0.00000000E+00  0.00000000E+00 -3.59628432E-03 -6.60997841E-03 -1.08033039E-02
 -1.45016366E-02 -1.40702161E-02 -1.40217650E-03 -1.58754166E-02 -4.33350911E-02
  4.90402773E-05 -9.59181857E-03 -9.43432386E-03 -7.23178417E-03  5.99251949E-01
  5.89412416E-01  4.51808041E-01  0.00000000E+00  0.00000000E+00  0.00000000E+00
  3.54040159E-02 -7.24015922E-04  2.10374184E-01  0.00000000E+00 -3.86675075E-03
 -5.82645819E-03  3.15039798E-02  0.00000000E+00 -1.32190386E-02  3.32260366E-02
 -1.30085676E-02 -2.03031700E-02  0.00000000E+00  0.00000000E+00 -3.28832143E-02
 -5.93166271E-02 -8.74483434E-02 -5.49362652E-02 -4.33040489E-03 -6.68272182E-03
 -2.04556997E-02  0.00000000E+00  3.28832143E-02  5.93166271E-02  8.74483434E-02
  5.49362652E-02  4.33040489E-03 -6.68272182E-03 -2.04556997E-02  0.00000000E+00
MO  4                     OCC NO =    1.9995433  ORB. ENERGY =   0.0000000
  2.05218891E-02  3.77192769E-02  6.16481301E-02  8.27523501E-02  8.02904857E-02
  8.00140035E-03  4.72301128E-02  1.28923939E-01 -1.45897137E-04  3.80061845E-02
  3.73821347E-02  2.86548919E-02  5.51149415E-01  5.42099711E-01  4.15540972E-01
  0.00000000E+00  0.00000000E+00  0.00000000E+00 -8.66335649E-02  1.02152903E-02
  1.88125798E-01  0.00000000E+00 -2.22874452E-03  7.47130849E-04  2.94685041E-02
  0.00000000E+00  5.90419718E-03 -3.44746991E-02  1.17145832E-02 -1.47221853E-02
  0.00000000E+00  0.00000000E+00  2.05218891E-02  3.77192769E-02  6.16481301E-02
  8.27523501E-02  8.02904857E-02  8.00140035E-03  4.72301128E-02  1.28923939E-01
 -1.45897137E-04 -3.80061845E-02 -3.73821347E-02 -2.86548919E-02 -5.51149415E-01
 -5.42099711E-01 -4.15540972E-01  0.00000000E+00  0.00000000E+00  0.00000000E+00
 -8.66335649E-02 -1.02152903E-02 -1.88125798E-01  0.00000000E+00 -2.22874452E-03
 -7.47130849E-04 -2.94685041E-02  0.00000000E+00  5.90419718E-03 -3.44746991E-02
  1.17145832E-02 -1.47221853E-02  0.00000000E+00  0.00000000E+00 -3.63552277E-02
 -6.55796439E-02 -9.66816811E-02 -6.80065738E-02 -4.22274722E-03 -2.28968675E-03
 -2.63792979E-02  0.00000000E+00 -3.63552277E-02 -6.55796439E-02 -9.66816811E-02
 -6.80065738E-02 -4.22274722E-03  2.28968675E-03  2.63792979E-02  0.00000000E+00
MO  5                     OCC NO =    1.9963109  ORB. ENERGY =   0.0000000
  6.44961600E-02  1.18544083E-01  1.93747644E-01  2.60073953E-01  2.52336809E-01
  2.51467881E-02  1.20932217E-01  3.30108416E-01 -3.73568115E-04  1.08808276E-01
  1.07021677E-01  8.20363688E-02 -4.07259384E-01 -4.00572310E-01 -3.07054595E-01
  0.00000000E+00  0.00000000E+00  0.00000000E+00 -1.87576272E-01  2.88954904E-02
 -1.33956826E-01  0.00000000E+00 -7.64523563E-02  1.29237889E-02 -2.70467917E-02
  0.00000000E+00 -1.67212023E-02  1.44030688E-02 -3.01990000E-03  2.53631202E-03
  0.00000000E+00  0.00000000E+00  6.44961600E-02  1.18544083E-01  1.93747644E-01
  2.60073953E-01  2.52336809E-01  2.51467881E-02  1.20932217E-01  3.30108416E-01
 -3.73568115E-04 -1.08808276E-01 -1.07021677E-01 -8.20363688E-02  4.07259384E-01
  4.00572310E-01  3.07054595E-01  0.00000000E+00  0.00000000E+00  0.00000000E+00
 -1.87576272E-01 -2.88954904E-02  1.33956826E-01  0.00000000E+00 -7.64523563E-02
 -1.29237889E-02  2.70467917E-02  0.00000000E+00 -1.67212023E-02  1.44030688E-02
 -3.01990000E-03  2.53631202E-03  0.00000000E+00  0.00000000E+00  6.22821444E-03
  1.12348103E-02  1.65630717E-02  2.88734078E-02  3.14050765E-03  3.61609163E-03
  6.99312073E-04  0.00000000E+00  6.22821444E-03  1.12348103E-02  1.65630717E-02
  2.88734078E-02  3.14050765E-03 -3.61609163E-03 -6.99312073E-04  0.00000000E+00
MO  6                     OCC NO =    1.9947916  ORB. ENERGY =   0.0000000
 -7.44667046E-02 -1.36869965E-01 -2.23699342E-01 -3.00279121E-01 -2.91345882E-01
 -2.90342626E-02 -1.38362727E-01 -3.77688441E-01  4.27412183E-04 -1.81479614E-01
 -1.78499775E-01 -1.36827171E-01  2.13554948E-01  2.10048442E-01  1.61010478E-01
  0.00000000E+00  0.00000000E+00  0.00000000E+00  2.15896492E-01 -6.10340037E-02
  7.07778038E-02  0.00000000E+00  8.23549138E-02 -9.04343273E-03  1.76156088E-02
  0.00000000E+00 -8.62389062E-03  4.68699661E-03  3.44563020E-03  2.16979940E-02
  0.00000000E+00  0.00000000E+00  7.44667046E-02  1.36869965E-01  2.23699342E-01
  3.00279121E-01  2.91345882E-01  2.90342626E-02  1.38362727E-01  3.77688441E-01
 -4.27412183E-04 -1.81479614E-01 -1.78499775E-01 -1.36827171E-01  2.13554948E-01
  2.10048442E-01  1.61010478E-01  0.00000000E+00  0.00000000E+00  0.00000000E+00
 -2.15896492E-01 -6.10340037E-02  7.07778038E-02  0.00000000E+00 -8.23549138E-02
 -9.04343273E-03  1.76156088E-02  0.00000000E+00  8.62389062E-03 -4.68699661E-03
 -3.44563020E-03 -2.16979940E-02  0.00000000E+00  0.00000000E+00  7.88709732E-03
  1.42271983E-02  2.09746404E-02  5.70981149E-03 -2.48382354E-03 -3.66106947E-03
  1.15897588E-02  0.00000000E+00 -7.88709732E-03 -1.42271983E-02 -2.09746404E-02
 -5.70981149E-03  2.48382354E-03 -3.66106947E-03  1.15897588E-02  0.00000000E+00
MO  7                     OCC NO =    1.9256874  ORB. ENERGY =   0.0000000
  9.67221796E-03  1.77775577E-02  2.90555196E-02  3.90021973E-02  3.78418904E-02
  3.77115809E-03  1.49877323E-02  4.09119809E-02 -4.62981579E-05 -7.58397158E-01
 -7.45944510E-01 -5.71796112E-01  4.55653433E-02  4.48171744E-02  3.43541453E-02
  0.00000000E+00  0.00000000E+00  0.00000000E+00 -2.15870449E-02 -2.86197261E-01
  1.38596411E-02  0.00000000E+00  8.49087207E-03 -4.53434586E-02  6.91674414E-03
  0.00000000E+00 -4.82946602E-02  1.50524548E-02  9.56789457E-03  2.40916362E-02
  0.00000000E+00  0.00000000E+00  9.67221796E-03  1.77775577E-02  2.90555196E-02
  3.90021973E-02  3.78418904E-02  3.77115809E-03  1.49877323E-02  4.09119809E-02
 -4.62981579E-05  7.58397158E-01  7.45944510E-01  5.71796112E-01 -4.55653433E-02
 -4.48171744E-02 -3.43541453E-02  0.00000000E+00  0.00000000E+00  0.00000000E+00
 -2.15870449E-02  2.86197261E-01 -1.38596411E-02  0.00000000E+00  8.49087207E-03
  4.53434586E-02 -6.91674414E-03  0.00000000E+00 -4.82946602E-02  1.50524548E-02
  9.56789457E-03  2.40916362E-02  0.00000000E+00  0.00000000E+00  4.72596773E-03
  8.52497152E-03  1.25680551E-02  8.75257163E-03  4.65200504E-03 -1.31420540E-02
  2.79523628E-03  0.00000000E+00  4.72596773E-03  8.52497152E-03  1.25680551E-02
  8.75257163E-03  4.65200504E-03  1.31420540E-02 -2.79523628E-03  0.00000000E+00
MO  8                     OCC NO =    1.7796959  ORB. ENERGY =   0.0000000
  0.00000000E+00  0.00000000E+00  0.00000000E+00  0.00000000E+00  0.00000000E+00
  0.00000000E+00  0.00000000E+00  0.00000000E+00  0.00000000E+00  0.00000000E+00
  0.00000000E+00  0.00000000E+00  0.00000000E+00  0.00000000E+00  0.00000000E+00
 -7.40082693E-01 -7.27930763E-01 -5.57987859E-01  0.00000000E+00  0.00000000E+00
  0.00000000E+00 -2.61502505E-01  0.00000000E+00  0.00000000E+00  0.00000000E+00
 -5.74209378E-02  0.00000000E+00  0.00000000E+00  0.00000000E+00  0.00000000E+00
 -5.16621579E-02  2.62838614E-02  0.00000000E+00  0.00000000E+00  0.00000000E+00
  0.00000000E+00  0.00000000E+00  0.00000000E+00  0.00000000E+00  0.00000000E+00
  0.00000000E+00  0.00000000E+00  0.00000000E+00  0.00000000E+00  0.00000000E+00
  0.00000000E+00  0.00000000E+00 -7.40082693E-01 -7.27930763E-01 -5.57987859E-01
  0.00000000E+00  0.00000000E+00  0.00000000E+00 -2.61502505E-01  0.00000000E+00
  0.00000000E+00  0.00000000E+00 -5.74209378E-02  0.00000000E+00  0.00000000E+00
  0.00000000E+00  0.00000000E+00  5.16621579E-02 -2.62838614E-02  0.00000000E+00
  0.00000000E+00  0.00000000E+00  0.00000000E+00  0.00000000E+00  0.00000000E+00
  0.00000000E+00 -1.51400536E-02  0.00000000E+00  0.00000000E+00  0.00000000E+00
  0.00000000E+00  0.00000000E+00  0.00000000E+00  0.00000000E+00 -1.51400536E-02
MO  9                     OCC NO =    0.2262273  ORB. ENERGY =   0.0000000
  0.00000000E+00  0.00000000E+00  0.00000000E+00  0.00000000E+00  0.00000000E+00
  0.00000000E+00  0.00000000E+00  0.00000000E+00  0.00000000E+00  0.00000000E+00
  0.00000000E+00  0.00000000E+00  0.00000000E+00  0.00000000E+00  0.00000000E+00
  9.46174094E-01  9.30638207E-01  7.13371171E-01  0.00000000E+00  0.00000000E+00
  0.00000000E+00  3.50621546E-01  0.00000000E+00  0.00000000E+00  0.00000000E+00
  5.18720614E-02  0.00000000E+00  0.00000000E+00  0.00000000E+00  0.00000000E+00
  1.03003247E-02 -2.72026564E-02  0.00000000E+00  0.00000000E+00  0.00000000E+00
  0.00000000E+00  0.00000000E+00  0.00000000E+00  0.00000000E+00  0.00000000E+00
  0.00000000E+00  0.00000000E+00  0.00000000E+00  0.00000000E+00  0.00000000E+00
  0.00000000E+00  0.00000000E+00 -9.46174094E-01 -9.30638207E-01 -7.13371171E-01
  0.00000000E+00  0.00000000E+00  0.00000000E+00 -3.50621546E-01  0.00000000E+00
  0.00000000E+00  0.00000000E+00 -5.18720614E-02  0.00000000E+00  0.00000000E+00
  0.00000000E+00  0.00000000E+00  1.03003247E-02 -2.72026564E-02  0.00000000E+00
  0.00000000E+00  0.00000000E+00  0.00000000E+00  0.00000000E+00  0.00000000E+00
  0.00000000E+00  1.35152390E-02  0.00000000E+00  0.00000000E+00  0.00000000E+00
  0.00000000E+00  0.00000000E+00  0.00000000E+00  0.00000000E+00 -1.35152390E-02
MO 10                     OCC NO =    0.0779507  ORB. ENERGY =   0.0000000
  3.65870534E-02  6.72470839E-02  1.09908178E-01  1.47533428E-01  1.43144341E-01
  1.42651420E-02  6.71775189E-02  1.83374331E-01 -2.07516075E-04 -1.10919799E+00
 -1.09098530E+00 -8.36283592E-01 -8.81301845E-03 -8.66831141E-03 -6.64460518E-03
  0.00000000E+00  0.00000000E+00  0.00000000E+00 -1.19415116E-01 -4.11504729E-01
 -6.28078504E-03  0.00000000E+00 -5.68496150E-02 -5.42220407E-02 -3.12158965E-03
  0.00000000E+00 -3.53017921E-03  1.64144738E-02 -1.49327614E-02  1.85817487E-02
  0.00000000E+00  0.00000000E+00 -3.65870534E-02 -6.72470839E-02 -1.09908178E-01
 -1.47533428E-01 -1.43144341E-01 -1.42651420E-02 -6.71775189E-02 -1.83374331E-01
  2.07516075E-04 -1.10919799E+00 -1.09098530E+00 -8.36283592E-01 -8.81301845E-03
 -8.66831141E-03 -6.64460518E-03  0.00000000E+00  0.00000000E+00  0.00000000E+00
  1.19415116E-01 -4.11504729E-01 -6.28078504E-03  0.00000000E+00  5.68496150E-02
 -5.42220407E-02 -3.12158965E-03  0.00000000E+00  3.53017921E-03 -1.64144738E-02
  1.49327614E-02 -1.85817487E-02  0.00000000E+00  0.00000000E+00  2.81869924E-04
  5.08453129E-04  7.49593934E-04  6.14234198E-03 -4.24537670E-04 -1.19906986E-02
 -1.07326103E-03  0.00000000E+00 -2.81869924E-04 -5.08453129E-04 -7.49593934E-04
 -6.14234198E-03  4.24537670E-04 -1.19906986E-02 -1.07326103E-03  0.00000000E+00
END DATA
ALDET    ENERGY =     -110.0505421022   VIRIAL(-V/T)  =   2.00323908
CANONICAL ORBITALS
CANMO  1
 -3.93376981E-01 -7.23027747E-01 -1.18171164E+00 -1.58625112E+00 -1.53906050E+00
 -1.53376070E-01 -3.47715190E-01 -9.49157417E-01  1.07411665E-03 -7.16675978E-03
 -7.04908379E-03 -5.40340287E-03 -9.45859792E-03 -9.30329066E-03 -7.13134202E-03
  0.00000000E+00  0.00000000E+00  0.00000000E+00  4.33462674E-03 -8.10855899E-04
 -5.76832472E-03  0.00000000E+00  1.69186254E-03 -2.66432609E-05 -6.06865160E-04
  0.00000000E+00 -1.61107685E-04  1.30905630E-03  1.02338809E-05 -6.39471391E-06
  0.00000000E+00  0.00000000E+00  3.93376981E-01  7.23027747E-01  1.18171164E+00
  1.58625112E+00  1.53906050E+00  1.53376070E-01  3.47715190E-01  9.49157417E-01
 -1.07411665E-03 -7.16675978E-03 -7.04908379E-03 -5.40340287E-03 -9.45859792E-03
 -9.30329066E-03 -7.13134202E-03  0.00000000E+00  0.00000000E+00  0.00000000E+00
 -4.33462674E-03 -8.10855899E-04 -5.76832472E-03  0.00000000E+00 -1.69186254E-03
 -2.66432609E-05 -6.06865160E-04  0.00000000E+00  1.61107685E-04 -1.30905630E-03
 -1.02338809E-05  6.39471391E-06  0.00000000E+00  0.00000000E+00  1.16813327E-03
  2.10714576E-03  3.10648826E-03  1.78471084E-03  9.20619970E-05  6.29646984E-05
  6.53597379E-04  0.00000000E+00 -1.16813327E-03 -2.10714576E-03 -3.10648826E-03
 -1.78471084E-03 -9.20619970E-05  6.29646984E-05  6.53597379E-04  0.00000000E+00
CANMO  2
 -3.94184528E-01 -7.24512020E-01 -1.18413753E+00 -1.58950747E+00 -1.54221997E+00
 -1.53690930E-01 -3.49223826E-01 -9.53275537E-01  1.07877693E-03 -7.38428975E-03
 -7.26304199E-03 -5.56741033E-03 -6.89734622E-03 -6.78409392E-03 -5.20027760E-03
  0.00000000E+00  0.00000000E+00  0.00000000E+00  6.66105229E-03 -7.69555649E-04
 -4.80527524E-03  0.00000000E+00  1.98556552E-03 -3.55086527E-04 -4.74656835E-04
  0.00000000E+00  2.82086741E-04  1.20129610E-03 -6.61328602E-05  6.80793593E-04
  0.00000000E+00  0.00000000E+00 -3.94184528E-01 -7.24512020E-01 -1.18413753E+00
 -1.58950747E+00 -1.54221997E+00 -1.53690930E-01 -3.49223826E-01 -9.53275537E-01
  1.07877693E-03  7.38428975E-03  7.26304199E-03  5.56741033E-03  6.89734622E-03
  6.78409392E-03  5.20027760E-03  0.00000000E+00  0.00000000E+00  0.00000000E+00
  6.66105229E-03  7.69555649E-04  4.80527524E-03  0.00000000E+00  1.98556552E-03
  3.55086527E-04  4.74656835E-04  0.00000000E+00  2.82086741E-04  1.20129610E-03
 -6.61328602E-05  6.80793593E-04  0.00000000E+00  0.00000000E+00  1.23486543E-03
  2.22752106E-03  3.28395319E-03  1.95572389E-03  8.99153878E-05 -3.63446844E-05
  7.97791798E-04  0.00000000E+00  1.23486543E-03  2.22752106E-03  3.28395319E-03
  1.95572389E-03  8.99153878E-05  3.63446844E-05 -7.97791798E-04  0.00000000E+00
CANMO  3
  6.02142877E-02  1.10673992E-01  1.80884821E-01  2.42807755E-01  2.35584277E-01
  2.34773037E-02  1.16521043E-01  3.18067244E-01 -3.59941688E-04 -2.45068139E-01
 -2.41044196E-01 -1.84769955E-01  5.93535230E-02  5.83789564E-02  4.47497902E-02
  0.00000000E+00  0.00000000E+00  0.00000000E+00 -1.87681374E-01 -1.03166050E-01
  2.29500741E-02  0.00000000E+00 -4.96855466E-02 -1.11453331E-02  1.58849794E-03
  0.00000000E+00 -2.97570129E-02 -3.21962168E-03  8.98117964E-03  4.10421058E-03
  0.00000000E+00  0.00000000E+00  6.02142877E-02  1.10673992E-01  1.80884821E-01
  2.42807755E-01  2.35584277E-01  2.34773037E-02  1.16521043E-01  3.18067244E-01
 -3.59941688E-04  2.45068139E-01  2.41044196E-01  1.84769955E-01 -5.93535230E-02
 -5.83789564E-02 -4.47497902E-02  0.00000000E+00  0.00000000E+00  0.00000000E+00
 -1.87681374E-01  1.03166050E-01 -2.29500741E-02  0.00000000E+00 -4.96855466E-02
  1.11453331E-02 -1.58849794E-03  0.00000000E+00 -2.97570129E-02 -3.21962168E-03
  8.98117964E-03  4.10421058E-03  0.00000000E+00  0.00000000E+00 -1.45322080E-02
 -2.62140300E-02 -3.86463898E-02 -1.54588844E-02  1.80941171E-03 -4.76055792E-03
 -1.34391232E-02  0.00000000E+00 -1.45322080E-02 -2.62140300E-02 -3.86463898E-02
 -1.54588844E-02  1.80941171E-03  4.76055792E-03  1.34391232E-02  0.00000000E+00
CANMO  4
 -5.22845783E-02 -9.60991688E-02 -1.57063829E-01 -2.10832039E-01 -2.04559832E-01
 -2.03855425E-02 -1.03738848E-01 -2.83175714E-01  3.20456590E-04 -1.92629617E-01
 -1.89466698E-01 -1.45233754E-01 -2.77359554E-01 -2.72805396E-01 -2.09116178E-01
  0.00000000E+00  0.00000000E+00  0.00000000E+00  1.68480287E-01 -6.90757127E-02
 -1.00512908E-01  0.00000000E+00  5.11734603E-02 -5.72608209E-03 -1.02839258E-02
  0.00000000E+00 -1.56686266E-02  2.79856226E-02 -7.81668214E-03  1.95764525E-03
  0.00000000E+00  0.00000000E+00  5.22845783E-02  9.60991688E-02  1.57063829E-01
  2.10832039E-01  2.04559832E-01  2.03855425E-02  1.03738848E-01  2.83175714E-01
 -3.20456590E-04 -1.92629617E-01 -1.89466698E-01 -1.45233754E-01 -2.77359554E-01
 -2.72805396E-01 -2.09116178E-01  0.00000000E+00  0.00000000E+00  0.00000000E+00
 -1.68480287E-01 -6.90757127E-02 -1.00512908E-01  0.00000000E+00 -5.11734603E-02
 -5.72608209E-03 -1.02839258E-02  0.00000000E+00  1.56686266E-02 -2.79856226E-02
  7.81668214E-03 -1.95764525E-03  0.00000000E+00  0.00000000E+00  2.89277631E-02
  5.21815574E-02  7.69293700E-02  4.34728424E-02  1.31412483E-03  1.40800840E-03
  2.25910254E-02  0.00000000E+00 -2.89277631E-02 -5.21815574E-02 -7.69293700E-02
 -4.34728424E-02 -1.31412483E-03  1.40800840E-03  2.25910254E-02  0.00000000E+00
CANMO  5
  4.99331206E-03  9.17771844E-03  1.50000007E-02  2.01350035E-02  1.95359915E-02
  1.94687188E-03  1.72371670E-02  4.70522583E-02 -5.32468200E-05  6.20387162E-01
  6.10200596E-01  4.67743007E-01  3.04303777E-01  2.99307202E-01  2.29430865E-01
  0.00000000E+00  0.00000000E+00  0.00000000E+00 -3.62915378E-02  2.31580169E-01
  1.05198410E-01  0.00000000E+00 -8.00224815E-03  3.61467723E-02  1.27470498E-02
  0.00000000E+00  4.16720716E-02 -3.31196002E-02 -3.05918231E-04 -2.80460796E-02
  0.00000000E+00  0.00000000E+00  4.99331206E-03  9.17771844E-03  1.50000007E-02
  2.01350035E-02  1.95359915E-02  1.94687188E-03  1.72371670E-02  4.70522583E-02
 -5.32468200E-05 -6.20387162E-01 -6.10200596E-01 -4.67743007E-01 -3.04303777E-01
 -2.99307202E-01 -2.29430865E-01  0.00000000E+00  0.00000000E+00  0.00000000E+00
 -3.62915378E-02 -2.31580169E-01 -1.05198410E-01  0.00000000E+00 -8.00224815E-03
 -3.61467723E-02 -1.27470498E-02  0.00000000E+00  4.16720716E-02 -3.31196002E-02
 -3.05918231E-04 -2.80460796E-02  0.00000000E+00  0.00000000E+00 -2.61439406E-02
 -4.71599388E-02 -6.95261805E-02 -4.88487176E-02 -6.26851162E-03  8.93114106E-03
 -1.84681490E-02  0.00000000E+00 -2.61439406E-02 -4.71599388E-02 -6.95261805E-02
 -4.88487176E-02 -6.26851162E-03 -8.93114106E-03  1.84681490E-02  0.00000000E+00
CANMO  6
 -4.80684492E-02 -8.83499143E-02 -1.44398500E-01 -1.93830944E-01 -1.88064516E-01
 -1.87416911E-02 -8.28995978E-02 -2.26290856E-01  2.56082682E-04 -2.01621775E-01
 -1.98311208E-01 -1.52013422E-01  5.72044427E-01  5.62651634E-01  4.31294838E-01
  0.00000000E+00  0.00000000E+00  0.00000000E+00  1.21008634E-01 -6.83470569E-02
  1.97660311E-01  0.00000000E+00  5.76949897E-02 -1.37437317E-02  3.44430150E-02
  0.00000000E+00  2.96805879E-03 -1.90515670E-02  1.06938710E-02  3.07599710E-02
  0.00000000E+00  0.00000000E+00  4.80684492E-02  8.83499143E-02  1.44398500E-01
  1.93830944E-01  1.88064516E-01  1.87416911E-02  8.28995978E-02  2.26290856E-01
 -2.56082682E-04 -2.01621775E-01 -1.98311208E-01 -1.52013422E-01  5.72044427E-01
  5.62651634E-01  4.31294838E-01  0.00000000E+00  0.00000000E+00  0.00000000E+00
 -1.21008634E-01 -6.83470569E-02  1.97660311E-01  0.00000000E+00 -5.76949897E-02
 -1.37437317E-02  3.44430150E-02  0.00000000E+00 -2.96805879E-03  1.90515670E-02
 -1.06938710E-02 -3.07599710E-02  0.00000000E+00  0.00000000E+00 -1.75059388E-02
 -3.15782160E-02 -4.65546140E-02 -3.41998963E-02 -4.82964418E-03 -8.00827914E-03
 -6.22735520E-03  0.00000000E+00  1.75059388E-02  3.15782160E-02  4.65546140E-02
  3.41998963E-02  4.82964418E-03 -8.00827914E-03 -6.22735520E-03  0.00000000E+00
CANMO  7
  0.00000000E+00  0.00000000E+00  0.00000000E+00  0.00000000E+00  0.00000000E+00
  0.00000000E+00  0.00000000E+00  0.00000000E+00  0.00000000E+00  0.00000000E+00
  0.00000000E+00  0.00000000E+00  0.00000000E+00  0.00000000E+00  0.00000000E+00
  7.40082693E-01  7.27930763E-01  5.57987859E-01  0.00000000E+00  0.00000000E+00
  0.00000000E+00  2.61502505E-01  0.00000000E+00  0.00000000E+00  0.00000000E+00
  5.74209378E-02  0.00000000E+00  0.00000000E+00  0.00000000E+00  0.00000000E+00
  5.16621579E-02 -2.62838614E-02  0.00000000E+00  0.00000000E+00  0.00000000E+00
  0.00000000E+00  0.00000000E+00  0.00000000E+00  0.00000000E+00  0.00000000E+00
  0.00000000E+00  0.00000000E+00  0.00000000E+00  0.00000000E+00  0.00000000E+00
  0.00000000E+00  0.00000000E+00  7.40082693E-01  7.27930763E-01  5.57987859E-01
  0.00000000E+00  0.00000000E+00  0.00000000E+00  2.61502505E-01  0.00000000E+00
  0.00000000E+00  0.00000000E+00  5.74209378E-02  0.00000000E+00  0.00000000E+00
  0.00000000E+00  0.00000000E+00 -5.16621579E-02  2.62838614E-02  0.00000000E+00
  0.00000000E+00  0.00000000E+00  0.00000000E+00  0.00000000E+00  0.00000000E+00
  0.00000000E+00  1.51400536E-02  0.00000000E+00  0.00000000E+00  0.00000000E+00
  0.00000000E+00  0.00000000E+00  0.00000000E+00  0.00000000E+00  1.51400536E-02
CANMO  8
 -3.19962620E-02 -5.88091993E-02 -9.61173562E-02 -1.29021547E-01 -1.25183184E-01
 -1.24752113E-02 -5.66184017E-02 -1.54551131E-01  1.74898220E-04 -3.78828901E-01
 -3.72608647E-01 -2.85619336E-01  6.12844560E-01  6.02781841E-01  4.62056236E-01
  0.00000000E+00  0.00000000E+00  0.00000000E+00  8.13317816E-02 -1.36292205E-01
  2.04778968E-01  0.00000000E+00  5.82179996E-02 -2.81567783E-02  3.85065244E-02
  0.00000000E+00 -4.97905480E-03 -2.26992462E-02  1.25355769E-02  3.94246085E-04
  0.00000000E+00  0.00000000E+00 -3.19962620E-02 -5.88091993E-02 -9.61173562E-02
 -1.29021547E-01 -1.25183184E-01 -1.24752113E-02 -5.66184017E-02 -1.54551131E-01
  1.74898220E-04  3.78828901E-01  3.72608647E-01  2.85619336E-01 -6.12844560E-01
 -6.02781841E-01 -4.62056236E-01  0.00000000E+00  0.00000000E+00  0.00000000E+00
  8.13317816E-02  1.36292205E-01 -2.04778968E-01  0.00000000E+00  5.82179996E-02
  2.81567783E-02 -3.85065244E-02  0.00000000E+00 -4.97905480E-03 -2.26992462E-02
  1.25355769E-02  3.94246085E-04  0.00000000E+00  0.00000000E+00 -2.20938297E-02
 -3.98541166E-02 -5.87554728E-02 -5.39444247E-02 -2.60140820E-03 -9.41297911E-03
 -1.35087816E-02  0.00000000E+00 -2.20938297E-02 -3.98541166E-02 -5.87554728E-02
 -5.39444247E-02 -2.60140820E-03  9.41297911E-03  1.35087816E-02  0.00000000E+00
CANMO  9
  0.00000000E+00  0.00000000E+00  0.00000000E+00  0.00000000E+00  0.00000000E+00
  0.00000000E+00  0.00000000E+00  0.00000000E+00  0.00000000E+00  0.00000000E+00
  0.00000000E+00  0.00000000E+00  0.00000000E+00  0.00000000E+00  0.00000000E+00
 -9.46174094E-01 -9.30638207E-01 -7.13371171E-01  0.00000000E+00  0.00000000E+00
  0.00000000E+00 -3.50621546E-01  0.00000000E+00  0.00000000E+00  0.00000000E+00
 -5.18720614E-02  0.00000000E+00  0.00000000E+00  0.00000000E+00  0.00000000E+00
 -1.03003247E-02  2.72026564E-02  0.00000000E+00  0.00000000E+00  0.00000000E+00
  0.00000000E+00  0.00000000E+00  0.00000000E+00  0.00000000E+00  0.00000000E+00
  0.00000000E+00  0.00000000E+00  0.00000000E+00  0.00000000E+00  0.00000000E+00
  0.00000000E+00  0.00000000E+00  9.46174094E-01  9.30638207E-01  7.13371171E-01
  0.00000000E+00  0.00000000E+00  0.00000000E+00  3.50621546E-01  0.00000000E+00
  0.00000000E+00  0.00000000E+00  5.18720614E-02  0.00000000E+00  0.00000000E+00
  0.00000000E+00  0.00000000E+00 -1.03003247E-02  2.72026564E-02  0.00000000E+00
  0.00000000E+00  0.00000000E+00  0.00000000E+00  0.00000000E+00  0.00000000E+00
  0.00000000E+00 -1.35152390E-02  0.00000000E+00  0.00000000E+00  0.00000000E+00
  0.00000000E+00  0.00000000E+00  0.00000000E+00  0.00000000E+00  1.35152390E-02
CANMO 10
  4.30416415E-02  7.91106308E-02  1.29297878E-01  1.73560873E-01  1.68397475E-01
  1.67817594E-02  7.92148982E-02  2.16232740E-01 -2.44700386E-04 -1.08884780E+00
 -1.07096925E+00 -8.20940495E-01 -2.49626667E-02 -2.45527874E-02 -1.88206873E-02
  0.00000000E+00  0.00000000E+00  0.00000000E+00 -1.38188324E-01 -4.04498506E-01
 -1.15671762E-02  0.00000000E+00 -6.38883984E-02 -5.32361044E-02 -4.52485625E-03
  0.00000000E+00 -2.69469907E-03  1.57865485E-02 -1.51202898E-02  1.66821716E-02
  0.00000000E+00  0.00000000E+00 -4.30416415E-02 -7.91106308E-02 -1.29297878E-01
 -1.73560873E-01 -1.68397475E-01 -1.67817594E-02 -7.92148982E-02 -2.16232740E-01
  2.44700386E-04 -1.08884780E+00 -1.07096925E+00 -8.20940495E-01 -2.49626667E-02
 -2.45527874E-02 -1.88206873E-02  0.00000000E+00  0.00000000E+00  0.00000000E+00
  1.38188324E-01 -4.04498506E-01 -1.15671762E-02  0.00000000E+00  6.38883984E-02
 -5.32361044E-02 -4.52485625E-03  0.00000000E+00  2.69469907E-03 -1.57865485E-02
  1.51202898E-02 -1.66821716E-02  0.00000000E+00  0.00000000E+00 -5.64062629E-04
 -1.01748851E-03 -1.50004626E-03  5.36680691E-03 -2.22780502E-04 -1.16500657E-02
 -2.18532982E-03  0.00000000E+00  5.64062629E-04  1.01748851E-03  1.50004626E-03
 -5.36680691E-03  2.22780502E-04 -1.16500657E-02 -2.18532982E-03  0.00000000E+00
END DATA
NELACTIVE, NDETS, NORBCORE, NORBACTIVE
    12   208     2     8
COEFFICIENT/ OCCUPIED ACTIVE SPIN ORBITALS
  0.9168509188E+00   1   2   3   4   5   6  -1  -2  -3  -4  -5  -6
 -0.2951735951E+00   1   2   3   4   6   7  -1  -2  -3  -4  -6  -7
 -0.7941598049E-01   1   2   4   5   6   8  -1  -2  -4  -5  -6  -8
 -0.7753525499E-01   1   2   4   5   6   8  -1  -2  -3  -4  -6  -7
 -0.7753525499E-01   1   2   3   4   6   7  -1  -2  -4  -5  -6  -8
 -0.6280146118E-01   1   2   3   4   5   6  -1  -3  -4  -5  -6  -8
 -0.6280146118E-01   1   3   4   5   6   8  -1  -2  -3  -4  -5  -6
 -0.5805110529E-01   1   2   3   4   5   6  -1  -2  -3  -5  -6  -8
 -0.5805110529E-01   1   2   3   5   6   8  -1  -2  -3  -4  -5  -6