(CH4)                                                                           
GAUSSIAN              3 MOL ORBITALS     48 PRIMITIVES        6 NUCLEI
  H    1    (CENTRE  1)   0.92966614  1.61022899  0.00000000  CHARGE =  1.0
  H    2    (CENTRE  2)  -0.92966614  1.61022899  0.00000000  CHARGE =  1.0
  H    3    (CENTRE  3)  -1.85933228  0.00000000  0.00000000  CHARGE =  1.0
  H    4    (CENTRE  4)  -0.92966614 -1.61022899  0.00000000  CHARGE =  1.0
  H    5    (CENTRE  5)   0.92966614 -1.61022899  0.00000000  CHARGE =  1.0
  H    6    (CENTRE  6)   1.85933228  0.00000000  0.00000000  CHARGE =  1.0
CENTRE ASSIGNMENTS    1  1  1  1  1  1  1  1  2  2  2  2  2  2  2  2  3  3  3  3
CENTRE ASSIGNMENTS    3  3  3  3  4  4  4  4  4  4  4  4  5  5  5  5  5  5  5  5
CENTRE ASSIGNMENTS    6  6  6  6  6  6  6  6
TYPE ASSIGNMENTS      1  1  1  1  1  2  3  4  1  1  1  1  1  2  3  4  1  1  1  1
TYPE ASSIGNMENTS      1  2  3  4  1  1  1  1  1  2  3  4  1  1  1  1  1  2  3  4
TYPE ASSIGNMENTS      1  1  1  1  1  2  3  4
EXPONENTS  3.3865000E+01 5.0947900E+00 1.1587900E+00 3.2584000E-01 1.0274100E-01
EXPONENTS  7.5000000E-01 7.5000000E-01 7.5000000E-01 3.3865000E+01 5.0947900E+00
EXPONENTS  1.1587900E+00 3.2584000E-01 1.0274100E-01 7.5000000E-01 7.5000000E-01
EXPONENTS  7.5000000E-01 3.3865000E+01 5.0947900E+00 1.1587900E+00 3.2584000E-01
EXPONENTS  1.0274100E-01 7.5000000E-01 7.5000000E-01 7.5000000E-01 3.3865000E+01
EXPONENTS  5.0947900E+00 1.1587900E+00 3.2584000E-01 1.0274100E-01 7.5000000E-01
EXPONENTS  7.5000000E-01 7.5000000E-01 3.3865000E+01 5.0947900E+00 1.1587900E+00
EXPONENTS  3.2584000E-01 1.0274100E-01 7.5000000E-01 7.5000000E-01 7.5000000E-01
EXPONENTS  3.3865000E+01 5.0947900E+00 1.1587900E+00 3.2584000E-01 1.0274100E-01
EXPONENTS  7.5000000E-01 7.5000000E-01 7.5000000E-01
MO  1                     OCC NO =    2.0000000  ORB. ENERGY =  -0.8009020
 -2.49807409E-02 -4.50616925E-02 -6.64328124E-02 -4.64570253E-02 -4.83032152E-03
  6.72895651E-03  1.16548945E-02  0.00000000E+00 -2.49807409E-02 -4.50616925E-02
 -6.64328124E-02 -4.64570253E-02 -4.83032152E-03 -6.72895651E-03  1.16548945E-02
  0.00000000E+00 -2.49807409E-02 -4.50616925E-02 -6.64328124E-02 -4.64570253E-02
 -4.83032152E-03 -1.34579130E-02  0.00000000E+00  0.00000000E+00 -2.49807409E-02
 -4.50616925E-02 -6.64328124E-02 -4.64570253E-02 -4.83032152E-03 -6.72895651E-03
 -1.16548945E-02  0.00000000E+00 -2.49807409E-02 -4.50616925E-02 -6.64328124E-02
 -4.64570253E-02 -4.83032152E-03  6.72895651E-03 -1.16548945E-02  0.00000000E+00
 -2.49807409E-02 -4.50616925E-02 -6.64328124E-02 -4.64570253E-02 -4.83032152E-03
  1.34579130E-02  0.00000000E+00  0.00000000E+00
MO  2                     OCC NO =    2.0000000  ORB. ENERGY =  -0.4711650
 -1.83204139E-02 -3.30474129E-02 -4.87205974E-02 -4.18636010E-02 -1.20777643E-02
 -1.56780914E-02  1.35391184E-02  0.00000000E+00  1.83204139E-02  3.30474129E-02
  4.87205974E-02  4.18636010E-02  1.20777643E-02 -1.56780914E-02 -1.35391184E-02
  0.00000000E+00  3.66408278E-02  6.60948257E-02  9.74411948E-02  8.37272021E-02
  2.41555286E-02  7.77234959E-03  0.00000000E+00  0.00000000E+00  1.83204139E-02
  3.30474129E-02  4.87205974E-02  4.18636010E-02  1.20777643E-02 -1.56780914E-02
  1.35391184E-02  0.00000000E+00 -1.83204139E-02 -3.30474129E-02 -4.87205974E-02
 -4.18636010E-02 -1.20777643E-02 -1.56780914E-02 -1.35391184E-02  0.00000000E+00
 -3.66408278E-02 -6.60948257E-02 -9.74411948E-02 -8.37272021E-02 -2.41555286E-02
  7.77234959E-03  0.00000000E+00  0.00000000E+00
MO  3                     OCC NO =    2.0000000  ORB. ENERGY =  -0.4711650
 -3.17318877E-02 -5.72397981E-02 -8.43865501E-02 -7.25098840E-02 -2.09193014E-02
  1.35391184E-02 -4.44640742E-05  0.00000000E+00 -3.17318877E-02 -5.72397981E-02
 -8.43865501E-02 -7.25098840E-02 -2.09193014E-02 -1.35391184E-02 -4.44640742E-05
  0.00000000E+00  0.00000000E+00  0.00000000E+00  0.00000000E+00  0.00000000E+00
  0.00000000E+00  0.00000000E+00 -2.34949051E-02  0.00000000E+00  3.17318877E-02
  5.72397981E-02  8.43865501E-02  7.25098840E-02  2.09193014E-02  1.35391184E-02
 -4.44640742E-05  0.00000000E+00  3.17318877E-02  5.72397981E-02  8.43865501E-02
  7.25098840E-02  2.09193014E-02 -1.35391184E-02 -4.44640742E-05  0.00000000E+00
  0.00000000E+00  0.00000000E+00  0.00000000E+00  0.00000000E+00  0.00000000E+00
  0.00000000E+00 -2.34949051E-02  0.00000000E+00
END DATA
RHF      ENERGY =       -3.2549397139   VIRIAL(-V/T)  =   2.00209908
