Title goes here                                                                 
GAUSSIAN             17 MOL ORBITALS    334 PRIMITIVES        9 NUCLEI
  C    1    (CENTRE  1)  -2.75761594 -1.18110127  0.00000000  CHARGE =  6.0
  C    2    (CENTRE  2)   2.75761594 -1.18110127 -0.00000000  CHARGE =  6.0
  C    3    (CENTRE  3)  -2.75761594  1.18110127 -0.00000000  CHARGE =  6.0
  C    4    (CENTRE  4)   2.75761594  1.18110127 -0.00000000  CHARGE =  6.0
  H    5    (CENTRE  5)  -3.51457391 -3.05676519  0.00000000  CHARGE =  1.0
  H    6    (CENTRE  6)   3.51457391 -3.05676519 -0.00000000  CHARGE =  1.0
  H    7    (CENTRE  7)  -3.51457391  3.05676519 -0.00000000  CHARGE =  1.0
  H    8    (CENTRE  8)   3.51457391  3.05676519 -0.00000000  CHARGE =  1.0
  C    9    (CENTRE  9)  -0.00000000  0.00000000  0.00000000  CHARGE =  6.0
CENTRE ASSIGNMENTS    1  1  1  1  1  1  1  1  1  1  1  1  1  1  1  1  1  1  1  1
CENTRE ASSIGNMENTS    1  1  1  1  1  1  1  1  1  1  1  1  1  1  1  1  1  1  1  1
CENTRE ASSIGNMENTS    1  1  1  1  1  1  1  1  1  1  1  1  1  1  1  1  1  1  2  2
CENTRE ASSIGNMENTS    2  2  2  2  2  2  2  2  2  2  2  2  2  2  2  2  2  2  2  2
CENTRE ASSIGNMENTS    2  2  2  2  2  2  2  2  2  2  2  2  2  2  2  2  2  2  2  2
CENTRE ASSIGNMENTS    2  2  2  2  2  2  2  2  2  2  2  2  2  2  2  2  3  3  3  3
CENTRE ASSIGNMENTS    3  3  3  3  3  3  3  3  3  3  3  3  3  3  3  3  3  3  3  3
CENTRE ASSIGNMENTS    3  3  3  3  3  3  3  3  3  3  3  3  3  3  3  3  3  3  3  3
CENTRE ASSIGNMENTS    3  3  3  3  3  3  3  3  3  3  3  3  3  3  4  4  4  4  4  4
CENTRE ASSIGNMENTS    4  4  4  4  4  4  4  4  4  4  4  4  4  4  4  4  4  4  4  4
CENTRE ASSIGNMENTS    4  4  4  4  4  4  4  4  4  4  4  4  4  4  4  4  4  4  4  4
CENTRE ASSIGNMENTS    4  4  4  4  4  4  4  4  4  4  4  4  5  5  5  5  5  5  5  5
CENTRE ASSIGNMENTS    5  5  5  6  6  6  6  6  6  6  6  6  6  6  7  7  7  7  7  7
CENTRE ASSIGNMENTS    7  7  7  7  7  8  8  8  8  8  8  8  8  8  8  8  9  9  9  9
CENTRE ASSIGNMENTS    9  9  9  9  9  9  9  9  9  9  9  9  9  9  9  9  9  9  9  9
CENTRE ASSIGNMENTS    9  9  9  9  9  9  9  9  9  9  9  9  9  9  9  9  9  9  9  9
CENTRE ASSIGNMENTS    9  9  9  9  9  9  9  9  9  9  9  9  9  9
TYPE ASSIGNMENTS      1  1  1  1  1  1  1  1  1  1  1  1  2  2  2  2  3  3  3  3
TYPE ASSIGNMENTS      4  4  4  4  2  3  4  2  3  4  5  6  7  8  9 10  5  6  7  8
TYPE ASSIGNMENTS      9 10  5  6  7  8  9 10 11 12 13 14 15 16 17 18 19 20  1  1
TYPE ASSIGNMENTS      1  1  1  1  1  1  1  1  1  1  2  2  2  2  3  3  3  3  4  4
TYPE ASSIGNMENTS      4  4  2  3  4  2  3  4  5  6  7  8  9 10  5  6  7  8  9 10
TYPE ASSIGNMENTS      5  6  7  8  9 10 11 12 13 14 15 16 17 18 19 20  1  1  1  1
TYPE ASSIGNMENTS      1  1  1  1  1  1  1  1  2  2  2  2  3  3  3  3  4  4  4  4
TYPE ASSIGNMENTS      2  3  4  2  3  4  5  6  7  8  9 10  5  6  7  8  9 10  5  6
TYPE ASSIGNMENTS      7  8  9 10 11 12 13 14 15 16 17 18 19 20  1  1  1  1  1  1
TYPE ASSIGNMENTS      1  1  1  1  1  1  2  2  2  2  3  3  3  3  4  4  4  4  2  3
TYPE ASSIGNMENTS      4  2  3  4  5  6  7  8  9 10  5  6  7  8  9 10  5  6  7  8
TYPE ASSIGNMENTS      9 10 11 12 13 14 15 16 17 18 19 20  1  1  1  1  1  2  3  4
TYPE ASSIGNMENTS      2  3  4  1  1  1  1  1  2  3  4  2  3  4  1  1  1  1  1  2
TYPE ASSIGNMENTS      3  4  2  3  4  1  1  1  1  1  2  3  4  2  3  4  1  1  1  1
TYPE ASSIGNMENTS      1  1  1  1  1  1  1  1  2  2  2  2  3  3  3  3  4  4  4  4
TYPE ASSIGNMENTS      2  3  4  2  3  4  5  6  7  8  9 10  5  6  7  8  9 10  5  6
TYPE ASSIGNMENTS      7  8  9 10 11 12 13 14 15 16 17 18 19 20
EXPONENTS  1.3575350E+04 2.0352334E+03 4.6322562E+02 1.3120020E+02 4.2853016E+01
EXPONENTS  1.5584186E+01 6.2067139E+00 2.5764897E+00 5.7696339E-01 2.2972831E-01
EXPONENTS  9.5164440E-02 4.8475401E-02 3.4697232E+01 7.9582623E+00 2.3780827E+00
EXPONENTS  8.1433208E-01 3.4697232E+01 7.9582623E+00 2.3780827E+00 8.1433208E-01
EXPONENTS  3.4697232E+01 7.9582623E+00 2.3780827E+00 8.1433208E-01 2.8887547E-01
EXPONENTS  2.8887547E-01 2.8887547E-01 1.0056824E-01 1.0056824E-01 1.0056824E-01
EXPONENTS  1.0970000E+00 1.0970000E+00 1.0970000E+00 1.0970000E+00 1.0970000E+00
EXPONENTS  1.0970000E+00 3.1800000E-01 3.1800000E-01 3.1800000E-01 3.1800000E-01
EXPONENTS  3.1800000E-01 3.1800000E-01 9.0985336E-02 9.0985336E-02 9.0985336E-02
EXPONENTS  9.0985336E-02 9.0985336E-02 9.0985336E-02 7.6100000E-01 7.6100000E-01
EXPONENTS  7.6100000E-01 7.6100000E-01 7.6100000E-01 7.6100000E-01 7.6100000E-01
EXPONENTS  7.6100000E-01 7.6100000E-01 7.6100000E-01 1.3575350E+04 2.0352334E+03
EXPONENTS  4.6322562E+02 1.3120020E+02 4.2853016E+01 1.5584186E+01 6.2067139E+00
EXPONENTS  2.5764897E+00 5.7696339E-01 2.2972831E-01 9.5164440E-02 4.8475401E-02
EXPONENTS  3.4697232E+01 7.9582623E+00 2.3780827E+00 8.1433208E-01 3.4697232E+01
EXPONENTS  7.9582623E+00 2.3780827E+00 8.1433208E-01 3.4697232E+01 7.9582623E+00
EXPONENTS  2.3780827E+00 8.1433208E-01 2.8887547E-01 2.8887547E-01 2.8887547E-01
EXPONENTS  1.0056824E-01 1.0056824E-01 1.0056824E-01 1.0970000E+00 1.0970000E+00
EXPONENTS  1.0970000E+00 1.0970000E+00 1.0970000E+00 1.0970000E+00 3.1800000E-01
EXPONENTS  3.1800000E-01 3.1800000E-01 3.1800000E-01 3.1800000E-01 3.1800000E-01
EXPONENTS  9.0985336E-02 9.0985336E-02 9.0985336E-02 9.0985336E-02 9.0985336E-02
EXPONENTS  9.0985336E-02 7.6100000E-01 7.6100000E-01 7.6100000E-01 7.6100000E-01
EXPONENTS  7.6100000E-01 7.6100000E-01 7.6100000E-01 7.6100000E-01 7.6100000E-01
EXPONENTS  7.6100000E-01 1.3575350E+04 2.0352334E+03 4.6322562E+02 1.3120020E+02
EXPONENTS  4.2853016E+01 1.5584186E+01 6.2067139E+00 2.5764897E+00 5.7696339E-01
EXPONENTS  2.2972831E-01 9.5164440E-02 4.8475401E-02 3.4697232E+01 7.9582623E+00
EXPONENTS  2.3780827E+00 8.1433208E-01 3.4697232E+01 7.9582623E+00 2.3780827E+00
EXPONENTS  8.1433208E-01 3.4697232E+01 7.9582623E+00 2.3780827E+00 8.1433208E-01
EXPONENTS  2.8887547E-01 2.8887547E-01 2.8887547E-01 1.0056824E-01 1.0056824E-01
EXPONENTS  1.0056824E-01 1.0970000E+00 1.0970000E+00 1.0970000E+00 1.0970000E+00
EXPONENTS  1.0970000E+00 1.0970000E+00 3.1800000E-01 3.1800000E-01 3.1800000E-01
EXPONENTS  3.1800000E-01 3.1800000E-01 3.1800000E-01 9.0985336E-02 9.0985336E-02
EXPONENTS  9.0985336E-02 9.0985336E-02 9.0985336E-02 9.0985336E-02 7.6100000E-01
EXPONENTS  7.6100000E-01 7.6100000E-01 7.6100000E-01 7.6100000E-01 7.6100000E-01
EXPONENTS  7.6100000E-01 7.6100000E-01 7.6100000E-01 7.6100000E-01 1.3575350E+04
EXPONENTS  2.0352334E+03 4.6322562E+02 1.3120020E+02 4.2853016E+01 1.5584186E+01
EXPONENTS  6.2067139E+00 2.5764897E+00 5.7696339E-01 2.2972831E-01 9.5164440E-02
EXPONENTS  4.8475401E-02 3.4697232E+01 7.9582623E+00 2.3780827E+00 8.1433208E-01
EXPONENTS  3.4697232E+01 7.9582623E+00 2.3780827E+00 8.1433208E-01 3.4697232E+01
EXPONENTS  7.9582623E+00 2.3780827E+00 8.1433208E-01 2.8887547E-01 2.8887547E-01
EXPONENTS  2.8887547E-01 1.0056824E-01 1.0056824E-01 1.0056824E-01 1.0970000E+00
EXPONENTS  1.0970000E+00 1.0970000E+00 1.0970000E+00 1.0970000E+00 1.0970000E+00
EXPONENTS  3.1800000E-01 3.1800000E-01 3.1800000E-01 3.1800000E-01 3.1800000E-01
EXPONENTS  3.1800000E-01 9.0985336E-02 9.0985336E-02 9.0985336E-02 9.0985336E-02
EXPONENTS  9.0985336E-02 9.0985336E-02 7.6100000E-01 7.6100000E-01 7.6100000E-01
EXPONENTS  7.6100000E-01 7.6100000E-01 7.6100000E-01 7.6100000E-01 7.6100000E-01
EXPONENTS  7.6100000E-01 7.6100000E-01 3.4061341E+01 5.1235746E+00 1.1646626E+00
EXPONENTS  3.2723041E-01 1.0307241E-01 8.0000000E-01 8.0000000E-01 8.0000000E-01
EXPONENTS  9.5774130E-02 9.5774130E-02 9.5774130E-02 3.4061341E+01 5.1235746E+00
EXPONENTS  1.1646626E+00 3.2723041E-01 1.0307241E-01 8.0000000E-01 8.0000000E-01
EXPONENTS  8.0000000E-01 9.5774130E-02 9.5774130E-02 9.5774130E-02 3.4061341E+01
EXPONENTS  5.1235746E+00 1.1646626E+00 3.2723041E-01 1.0307241E-01 8.0000000E-01
EXPONENTS  8.0000000E-01 8.0000000E-01 9.5774130E-02 9.5774130E-02 9.5774130E-02
EXPONENTS  3.4061341E+01 5.1235746E+00 1.1646626E+00 3.2723041E-01 1.0307241E-01
EXPONENTS  8.0000000E-01 8.0000000E-01 8.0000000E-01 9.5774130E-02 9.5774130E-02
EXPONENTS  9.5774130E-02 1.3575350E+04 2.0352334E+03 4.6322562E+02 1.3120020E+02
EXPONENTS  4.2853016E+01 1.5584186E+01 6.2067139E+00 2.5764897E+00 5.7696339E-01
EXPONENTS  2.2972831E-01 9.5164440E-02 4.8475401E-02 3.4697232E+01 7.9582623E+00
EXPONENTS  2.3780827E+00 8.1433208E-01 3.4697232E+01 7.9582623E+00 2.3780827E+00
EXPONENTS  8.1433208E-01 3.4697232E+01 7.9582623E+00 2.3780827E+00 8.1433208E-01
EXPONENTS  2.8887547E-01 2.8887547E-01 2.8887547E-01 1.0056824E-01 1.0056824E-01
EXPONENTS  1.0056824E-01 1.0970000E+00 1.0970000E+00 1.0970000E+00 1.0970000E+00
EXPONENTS  1.0970000E+00 1.0970000E+00 3.1800000E-01 3.1800000E-01 3.1800000E-01
EXPONENTS  3.1800000E-01 3.1800000E-01 3.1800000E-01 9.0985336E-02 9.0985336E-02
EXPONENTS  9.0985336E-02 9.0985336E-02 9.0985336E-02 9.0985336E-02 7.6100000E-01
EXPONENTS  7.6100000E-01 7.6100000E-01 7.6100000E-01 7.6100000E-01 7.6100000E-01
EXPONENTS  7.6100000E-01 7.6100000E-01 7.6100000E-01 7.6100000E-01
MO  1                     OCC NO =   2.00000000 ORB. ENERGY = -10.33294783
 -1.26963703E-01 -2.36964318E-01 -4.04434754E-01 -6.28531984E-01 -8.41874171E-01
 -8.64787119E-01 -5.58976006E-01 -1.65640781E-01 -1.06041302E-02  5.61493231E-03
 -2.67201612E-03 -3.22471091E-04 -1.05872984E-03 -1.13005115E-03 -9.89629147E-04
 -6.24938468E-04 -1.07572191E-03 -1.14818788E-03 -1.00551218E-03 -6.34968406E-04
  0.00000000E+00  0.00000000E+00  0.00000000E+00  0.00000000E+00  7.91427119E-04
  6.46929769E-04  0.00000000E+00 -1.06468635E-04 -1.81307769E-04  0.00000000E+00
  2.33123042E-04 -9.41233528E-04  7.08110486E-04 -1.67448645E-03  0.00000000E+00
  0.00000000E+00  9.17239895E-05  2.05302819E-04 -2.97026808E-04  4.70987103E-04
  0.00000000E+00  0.00000000E+00  6.77207909E-05 -1.68820044E-04  1.01099253E-04
 -1.01522849E-04  0.00000000E+00  0.00000000E+00  1.25592040E-05  2.80623276E-04
  0.00000000E+00 -9.10914257E-05  0.00000000E+00  0.00000000E+00  2.32773093E-04
 -2.70450705E-04 -7.50778401E-04  0.00000000E+00  1.26963703E-01  2.36964318E-01
  4.04434754E-01  6.28531984E-01  8.41874171E-01  8.64787119E-01  5.58976006E-01
  1.65640781E-01  1.06041302E-02 -5.61493231E-03  2.67201612E-03  3.22471091E-04
 -1.05872984E-03 -1.13005115E-03 -9.89629147E-04 -6.24938468E-04  1.07572191E-03
  1.14818788E-03  1.00551218E-03  6.34968406E-04  0.00000000E+00  0.00000000E+00
  0.00000000E+00  0.00000000E+00  7.91427119E-04 -6.46929769E-04  0.00000000E+00
 -1.06468635E-04  1.81307769E-04  0.00000000E+00 -2.33123042E-04  9.41233528E-04
 -7.08110486E-04 -1.67448645E-03  0.00000000E+00  0.00000000E+00 -9.17239895E-05
 -2.05302819E-04  2.97026808E-04  4.70987103E-04  0.00000000E+00  0.00000000E+00
 -6.77207909E-05  1.68820044E-04 -1.01099253E-04 -1.01522849E-04  0.00000000E+00
  0.00000000E+00  1.25592040E-05 -2.80623276E-04  0.00000000E+00  9.10914257E-05
  0.00000000E+00  0.00000000E+00  2.32773093E-04 -2.70450705E-04  7.50778401E-04
  0.00000000E+00 -1.26963703E-01 -2.36964318E-01 -4.04434754E-01 -6.28531984E-01
 -8.41874171E-01 -8.64787119E-01 -5.58976006E-01 -1.65640781E-01 -1.06041302E-02
  5.61493231E-03 -2.67201612E-03 -3.22471091E-04 -1.05872984E-03 -1.13005115E-03
 -9.89629147E-04 -6.24938468E-04  1.07572191E-03  1.14818788E-03  1.00551218E-03
  6.34968406E-04  0.00000000E+00  0.00000000E+00  0.00000000E+00  0.00000000E+00
  7.91427119E-04 -6.46929769E-04  0.00000000E+00 -1.06468635E-04  1.81307769E-04
  0.00000000E+00  2.33123042E-04 -9.41233528E-04  7.08110486E-04  1.67448645E-03
  0.00000000E+00  0.00000000E+00  9.17239895E-05  2.05302819E-04 -2.97026808E-04
 -4.70987103E-04  0.00000000E+00  0.00000000E+00  6.77207909E-05 -1.68820044E-04
  1.01099253E-04  1.01522849E-04  0.00000000E+00  0.00000000E+00  1.25592040E-05
 -2.80623276E-04  0.00000000E+00  9.10914257E-05  0.00000000E+00  0.00000000E+00
  2.32773093E-04 -2.70450705E-04  7.50778401E-04  0.00000000E+00  1.26963703E-01
  2.36964318E-01  4.04434754E-01  6.28531984E-01  8.41874171E-01  8.64787119E-01
  5.58976006E-01  1.65640781E-01  1.06041302E-02 -5.61493231E-03  2.67201612E-03
  3.22471091E-04 -1.05872984E-03 -1.13005115E-03 -9.89629147E-04 -6.24938468E-04
 -1.07572191E-03 -1.14818788E-03 -1.00551218E-03 -6.34968406E-04  0.00000000E+00
  0.00000000E+00  0.00000000E+00  0.00000000E+00  7.91427119E-04  6.46929769E-04
  0.00000000E+00 -1.06468635E-04 -1.81307769E-04  0.00000000E+00 -2.33123042E-04
  9.41233528E-04 -7.08110486E-04  1.67448645E-03  0.00000000E+00  0.00000000E+00
 -9.17239895E-05 -2.05302819E-04  2.97026808E-04 -4.70987103E-04  0.00000000E+00
  0.00000000E+00 -6.77207909E-05  1.68820044E-04 -1.01099253E-04  1.01522849E-04
  0.00000000E+00  0.00000000E+00  1.25592040E-05  2.80623276E-04  0.00000000E+00
 -9.10914257E-05  0.00000000E+00  0.00000000E+00  2.32773093E-04 -2.70450705E-04
 -7.50778401E-04  0.00000000E+00  3.87796827E-05  6.99894334E-05  1.03327794E-04
 -2.36818452E-04  1.96890887E-03  3.65673361E-04  7.13506266E-04  0.00000000E+00
  8.69963616E-05 -5.69872807E-05  0.00000000E+00 -3.87796827E-05 -6.99894334E-05
 -1.03327794E-04  2.36818452E-04 -1.96890887E-03  3.65673361E-04 -7.13506266E-04
  0.00000000E+00  8.69963616E-05  5.69872807E-05  0.00000000E+00  3.87796827E-05
  6.99894334E-05  1.03327794E-04 -2.36818452E-04  1.96890887E-03  3.65673361E-04
 -7.13506266E-04  0.00000000E+00  8.69963616E-05  5.69872807E-05  0.00000000E+00
 -3.87796827E-05 -6.99894334E-05 -1.03327794E-04  2.36818452E-04 -1.96890887E-03
  3.65673361E-04  7.13506266E-04  0.00000000E+00  8.69963616E-05 -5.69872807E-05
  0.00000000E+00  0.00000000E+00  0.00000000E+00  0.00000000E+00  0.00000000E+00
  0.00000000E+00  0.00000000E+00  0.00000000E+00  0.00000000E+00  0.00000000E+00
  0.00000000E+00  0.00000000E+00  0.00000000E+00  4.82274738E-04  5.14763162E-04
  4.50797851E-04  2.84673222E-04  0.00000000E+00  0.00000000E+00  0.00000000E+00
  0.00000000E+00  0.00000000E+00  0.00000000E+00  0.00000000E+00  0.00000000E+00
  2.88473397E-03  0.00000000E+00  0.00000000E+00 -1.08453961E-03  0.00000000E+00
  0.00000000E+00  0.00000000E+00  0.00000000E+00  0.00000000E+00  0.00000000E+00
  0.00000000E+00  0.00000000E+00  0.00000000E+00  0.00000000E+00  0.00000000E+00
  0.00000000E+00  0.00000000E+00  0.00000000E+00  0.00000000E+00  0.00000000E+00
  0.00000000E+00  0.00000000E+00  0.00000000E+00  0.00000000E+00 -1.47074938E-04
  0.00000000E+00  0.00000000E+00  0.00000000E+00  0.00000000E+00  0.00000000E+00
 -4.19856266E-04  8.61081079E-04  0.00000000E+00  0.00000000E+00
MO  2                     OCC NO =   2.00000000 ORB. ENERGY = -10.33294049
  1.26961655E-01  2.36960496E-01  4.04428230E-01  6.28521846E-01  8.41860591E-01
  8.64773170E-01  5.59038718E-01  1.65659364E-01  1.06262747E-02 -5.98437409E-03
  3.63734786E-03  8.91168160E-06  1.06077388E-03  1.13223289E-03  9.91539779E-04
  6.26145009E-04  9.50099075E-04  1.01410247E-03  8.88088443E-04  5.60816779E-04
  0.00000000E+00  0.00000000E+00  0.00000000E+00  0.00000000E+00 -1.07381264E-03
 -5.72597819E-04  0.00000000E+00  3.10977626E-04 -3.17832635E-04  0.00000000E+00
 -3.75686871E-04  9.70544066E-04 -5.94857195E-04  1.38337610E-03  0.00000000E+00
  0.00000000E+00 -8.27779985E-05 -2.50935984E-04  3.33713983E-04 -5.30675566E-04
  0.00000000E+00  0.00000000E+00  1.56406479E-07  9.10436558E-05 -9.12000623E-05
  1.06635037E-04  0.00000000E+00  0.00000000E+00 -9.78048518E-05 -2.49039477E-04
  0.00000000E+00 -1.39989699E-05  0.00000000E+00  0.00000000E+00 -1.71918646E-04
  4.65333201E-04  7.61117401E-04  0.00000000E+00  1.26961655E-01  2.36960496E-01
  4.04428230E-01  6.28521846E-01  8.41860591E-01  8.64773170E-01  5.59038718E-01
  1.65659364E-01  1.06262747E-02 -5.98437409E-03  3.63734786E-03  8.91168160E-06
 -1.06077388E-03 -1.13223289E-03 -9.91539779E-04 -6.26145009E-04  9.50099075E-04
  1.01410247E-03  8.88088443E-04  5.60816779E-04  0.00000000E+00  0.00000000E+00
  0.00000000E+00  0.00000000E+00  1.07381264E-03 -5.72597819E-04  0.00000000E+00
 -3.10977626E-04 -3.17832635E-04  0.00000000E+00 -3.75686871E-04  9.70544066E-04
 -5.94857195E-04 -1.38337610E-03  0.00000000E+00  0.00000000E+00 -8.27779985E-05
 -2.50935984E-04  3.33713983E-04  5.30675566E-04  0.00000000E+00  0.00000000E+00
  1.56406479E-07  9.10436558E-05 -9.12000623E-05 -1.06635037E-04  0.00000000E+00
  0.00000000E+00  9.78048518E-05 -2.49039477E-04  0.00000000E+00 -1.39989699E-05
  0.00000000E+00  0.00000000E+00  1.71918646E-04 -4.65333201E-04  7.61117401E-04
  0.00000000E+00  1.26961655E-01  2.36960496E-01  4.04428230E-01  6.28521846E-01
  8.41860591E-01  8.64773170E-01  5.59038718E-01  1.65659364E-01  1.06262747E-02
 -5.98437409E-03  3.63734786E-03  8.91168160E-06  1.06077388E-03  1.13223289E-03
  9.91539779E-04  6.26145009E-04 -9.50099075E-04 -1.01410247E-03 -8.88088443E-04
 -5.60816779E-04  0.00000000E+00  0.00000000E+00  0.00000000E+00  0.00000000E+00
 -1.07381264E-03  5.72597819E-04  0.00000000E+00  3.10977626E-04  3.17832635E-04
  0.00000000E+00 -3.75686871E-04  9.70544066E-04 -5.94857195E-04 -1.38337610E-03
  0.00000000E+00  0.00000000E+00 -8.27779985E-05 -2.50935984E-04  3.33713983E-04
  5.30675566E-04  0.00000000E+00  0.00000000E+00  1.56406479E-07  9.10436558E-05
 -9.12000623E-05 -1.06635037E-04  0.00000000E+00  0.00000000E+00 -9.78048518E-05
  2.49039477E-04  0.00000000E+00  1.39989699E-05  0.00000000E+00  0.00000000E+00
 -1.71918646E-04  4.65333201E-04 -7.61117401E-04  0.00000000E+00  1.26961655E-01
  2.36960496E-01  4.04428230E-01  6.28521846E-01  8.41860591E-01  8.64773170E-01
  5.59038718E-01  1.65659364E-01  1.06262747E-02 -5.98437409E-03  3.63734786E-03
  8.91168160E-06 -1.06077388E-03 -1.13223289E-03 -9.91539779E-04 -6.26145009E-04
 -9.50099075E-04 -1.01410247E-03 -8.88088443E-04 -5.60816779E-04  0.00000000E+00
  0.00000000E+00  0.00000000E+00  0.00000000E+00  1.07381264E-03  5.72597819E-04
  0.00000000E+00 -3.10977626E-04  3.17832635E-04  0.00000000E+00 -3.75686871E-04
  9.70544066E-04 -5.94857195E-04  1.38337610E-03  0.00000000E+00  0.00000000E+00
 -8.27779985E-05 -2.50935984E-04  3.33713983E-04 -5.30675566E-04  0.00000000E+00
  0.00000000E+00  1.56406479E-07  9.10436558E-05 -9.12000623E-05  1.06635037E-04
  0.00000000E+00  0.00000000E+00  9.78048518E-05  2.49039477E-04  0.00000000E+00
  1.39989699E-05  0.00000000E+00  0.00000000E+00  1.71918646E-04 -4.65333201E-04
 -7.61117401E-04  0.00000000E+00 -3.76155467E-05 -6.78884050E-05 -1.00225974E-04
  3.85843929E-04 -2.50079947E-03 -2.36579038E-04 -6.28678772E-04  0.00000000E+00
 -1.08493236E-04 -1.01073881E-04  0.00000000E+00 -3.76155467E-05 -6.78884050E-05
 -1.00225974E-04  3.85843929E-04 -2.50079947E-03  2.36579038E-04 -6.28678772E-04
  0.00000000E+00  1.08493236E-04 -1.01073881E-04  0.00000000E+00 -3.76155467E-05
 -6.78884050E-05 -1.00225974E-04  3.85843929E-04 -2.50079947E-03 -2.36579038E-04
  6.28678772E-04  0.00000000E+00 -1.08493236E-04  1.01073881E-04  0.00000000E+00
 -3.76155467E-05 -6.78884050E-05 -1.00225974E-04  3.85843929E-04 -2.50079947E-03
  2.36579038E-04  6.28678772E-04  0.00000000E+00  1.08493236E-04  1.01073881E-04
  0.00000000E+00  3.27632109E-04  6.11490666E-04  1.04365113E-03  1.62193804E-03
  2.17247138E-03  2.23159865E-03  1.34115263E-03  3.97422369E-04 -1.07495927E-03
  3.51121159E-03 -5.30377372E-03  1.08657838E-03  0.00000000E+00  0.00000000E+00
  0.00000000E+00  0.00000000E+00  0.00000000E+00  0.00000000E+00  0.00000000E+00
  0.00000000E+00  0.00000000E+00  0.00000000E+00  0.00000000E+00  0.00000000E+00
  0.00000000E+00  0.00000000E+00  0.00000000E+00  0.00000000E+00  0.00000000E+00
  0.00000000E+00  4.79925843E-04 -3.65478514E-04 -1.14447329E-04  0.00000000E+00
  0.00000000E+00  0.00000000E+00  9.54176918E-04 -3.59676884E-04 -5.94500034E-04
  0.00000000E+00  0.00000000E+00  0.00000000E+00  1.68041721E-04 -1.27439415E-04
 -4.06023058E-05  0.00000000E+00  0.00000000E+00  0.00000000E+00  0.00000000E+00
  0.00000000E+00  0.00000000E+00  0.00000000E+00  0.00000000E+00  0.00000000E+00
  0.00000000E+00  0.00000000E+00  0.00000000E+00  0.00000000E+00
MO  3                     OCC NO =   2.00000000 ORB. ENERGY = -10.33117187
  1.27033644E-01  2.37094856E-01  4.04657547E-01  6.28878227E-01  8.42337939E-01
  8.65263510E-01  5.59069212E-01  1.65668400E-01  9.80276151E-03 -5.91595173E-03
  3.00794727E-02  1.91291784E-04  1.07962534E-03  1.15235427E-03  1.00916085E-03
  6.37272493E-04  7.66062767E-04  8.17668563E-04  7.16063732E-04  4.52185319E-04
  0.00000000E+00  0.00000000E+00  0.00000000E+00  0.00000000E+00 -1.20464689E-03
 -5.01130902E-04  0.00000000E+00  1.48213082E-03  6.68708208E-03  0.00000000E+00
 -6.50073855E-04  1.89251887E-03 -1.24244501E-03  7.28345541E-04  0.00000000E+00
  0.00000000E+00 -1.64478885E-04  1.69285377E-04 -4.80649256E-06 -6.44993615E-04
  0.00000000E+00  0.00000000E+00 -1.78830682E-04  3.86364859E-04 -2.07534177E-04
  1.32939446E-04  0.00000000E+00  0.00000000E+00  2.51922906E-04  2.47532661E-04
  0.00000000E+00 -4.79513359E-04  0.00000000E+00  0.00000000E+00 -1.16774037E-03
  4.11971651E-04 -2.63084623E-04  0.00000000E+00  1.27033644E-01  2.37094856E-01
  4.04657547E-01  6.28878227E-01  8.42337939E-01  8.65263510E-01  5.59069212E-01
  1.65668400E-01  9.80276151E-03 -5.91595173E-03  3.00794727E-02  1.91291784E-04
 -1.07962534E-03 -1.15235427E-03 -1.00916085E-03 -6.37272493E-04  7.66062767E-04
  8.17668563E-04  7.16063732E-04  4.52185319E-04  0.00000000E+00  0.00000000E+00
  0.00000000E+00  0.00000000E+00  1.20464689E-03 -5.01130902E-04  0.00000000E+00
 -1.48213082E-03  6.68708208E-03  0.00000000E+00 -6.50073855E-04  1.89251887E-03
 -1.24244501E-03 -7.28345541E-04  0.00000000E+00  0.00000000E+00 -1.64478885E-04
  1.69285377E-04 -4.80649256E-06  6.44993615E-04  0.00000000E+00  0.00000000E+00
 -1.78830682E-04  3.86364859E-04 -2.07534177E-04 -1.32939446E-04  0.00000000E+00
  0.00000000E+00 -2.51922906E-04  2.47532661E-04  0.00000000E+00 -4.79513359E-04
  0.00000000E+00  0.00000000E+00  1.16774037E-03 -4.11971651E-04 -2.63084623E-04
  0.00000000E+00 -1.27033644E-01 -2.37094856E-01 -4.04657547E-01 -6.28878227E-01
 -8.42337939E-01 -8.65263510E-01 -5.59069212E-01 -1.65668400E-01 -9.80276151E-03
  5.91595173E-03 -3.00794727E-02 -1.91291784E-04 -1.07962534E-03 -1.15235427E-03
 -1.00916085E-03 -6.37272493E-04  7.66062767E-04  8.17668563E-04  7.16063732E-04
  4.52185319E-04  0.00000000E+00  0.00000000E+00  0.00000000E+00  0.00000000E+00
  1.20464689E-03 -5.01130902E-04  0.00000000E+00 -1.48213082E-03  6.68708208E-03
  0.00000000E+00  6.50073855E-04 -1.89251887E-03  1.24244501E-03  7.28345541E-04
  0.00000000E+00  0.00000000E+00  1.64478885E-04 -1.69285377E-04  4.80649256E-06
 -6.44993615E-04  0.00000000E+00  0.00000000E+00  1.78830682E-04 -3.86364859E-04
  2.07534177E-04  1.32939446E-04  0.00000000E+00  0.00000000E+00 -2.51922906E-04
  2.47532661E-04  0.00000000E+00 -4.79513359E-04  0.00000000E+00  0.00000000E+00
  1.16774037E-03 -4.11971651E-04 -2.63084623E-04  0.00000000E+00 -1.27033644E-01
 -2.37094856E-01 -4.04657547E-01 -6.28878227E-01 -8.42337939E-01 -8.65263510E-01
 -5.59069212E-01 -1.65668400E-01 -9.80276151E-03  5.91595173E-03 -3.00794727E-02
 -1.91291784E-04  1.07962534E-03  1.15235427E-03  1.00916085E-03  6.37272493E-04
  7.66062767E-04  8.17668563E-04  7.16063732E-04  4.52185319E-04  0.00000000E+00
  0.00000000E+00  0.00000000E+00  0.00000000E+00 -1.20464689E-03 -5.01130902E-04
  0.00000000E+00  1.48213082E-03  6.68708208E-03  0.00000000E+00  6.50073855E-04
 -1.89251887E-03  1.24244501E-03 -7.28345541E-04  0.00000000E+00  0.00000000E+00
  1.64478885E-04 -1.69285377E-04  4.80649256E-06  6.44993615E-04  0.00000000E+00
  0.00000000E+00  1.78830682E-04 -3.86364859E-04  2.07534177E-04 -1.32939446E-04
  0.00000000E+00  0.00000000E+00  2.51922906E-04  2.47532661E-04  0.00000000E+00
 -4.79513359E-04  0.00000000E+00  0.00000000E+00 -1.16774037E-03  4.11971651E-04
 -2.63084623E-04  0.00000000E+00 -6.25397667E-05 -1.12871548E-04 -1.66636127E-04
  2.35913412E-05 -2.32965208E-04 -3.66241452E-04 -8.78977251E-04  0.00000000E+00
 -1.33311864E-04  3.29803903E-04  0.00000000E+00 -6.25397667E-05 -1.12871548E-04
 -1.66636127E-04  2.35913412E-05 -2.32965208E-04  3.66241452E-04 -8.78977251E-04
  0.00000000E+00  1.33311864E-04  3.29803903E-04  0.00000000E+00  6.25397667E-05
  1.12871548E-04  1.66636127E-04 -2.35913412E-05  2.32965208E-04  3.66241452E-04
 -8.78977251E-04  0.00000000E+00  1.33311864E-04  3.29803903E-04  0.00000000E+00
  6.25397667E-05  1.12871548E-04  1.66636127E-04 -2.35913412E-05  2.32965208E-04
 -3.66241452E-04 -8.78977251E-04  0.00000000E+00 -1.33311864E-04  3.29803903E-04
  0.00000000E+00  0.00000000E+00  0.00000000E+00  0.00000000E+00  0.00000000E+00
  0.00000000E+00  0.00000000E+00  0.00000000E+00  0.00000000E+00  0.00000000E+00
  0.00000000E+00  0.00000000E+00  0.00000000E+00  0.00000000E+00  0.00000000E+00
  0.00000000E+00  0.00000000E+00 -3.75966995E-04 -4.01294001E-04 -3.51428553E-04
 -2.21922750E-04  0.00000000E+00  0.00000000E+00  0.00000000E+00  0.00000000E+00
  0.00000000E+00 -9.17718770E-04  0.00000000E+00  0.00000000E+00  1.79940075E-03
  0.00000000E+00  0.00000000E+00  0.00000000E+00  0.00000000E+00  0.00000000E+00
  0.00000000E+00  0.00000000E+00  0.00000000E+00  0.00000000E+00  0.00000000E+00
  0.00000000E+00  0.00000000E+00  0.00000000E+00  0.00000000E+00  0.00000000E+00
  0.00000000E+00  0.00000000E+00  0.00000000E+00  0.00000000E+00  0.00000000E+00
 -1.64108475E-04  0.00000000E+00  1.01882658E-03  0.00000000E+00  0.00000000E+00
  0.00000000E+00  0.00000000E+00 -5.26501155E-04  0.00000000E+00
MO  4                     OCC NO =   2.00000000 ORB. ENERGY = -10.33116867
 -1.27037018E-01 -2.37101152E-01 -4.04668293E-01 -6.28894928E-01 -8.42360308E-01
 -8.65286487E-01 -5.59002531E-01 -1.65648641E-01 -1.10594041E-02  1.16224099E-02
 -5.53894586E-02 -7.22214782E-04 -1.15774285E-03 -1.23573416E-03 -1.08217981E-03
 -6.83383061E-04 -8.24567473E-04 -8.80114437E-04 -7.70749980E-04 -4.86719003E-04
  0.00000000E+00  0.00000000E+00  0.00000000E+00  0.00000000E+00  2.41997952E-03
  2.96703138E-03  0.00000000E+00 -3.26380680E-03 -1.22013885E-02  0.00000000E+00
  8.94025501E-04 -1.81552153E-03  9.21496025E-04 -7.43403399E-04  0.00000000E+00
  0.00000000E+00  1.17801955E-04  2.81562027E-04 -3.99363982E-04  1.20091860E-03
  0.00000000E+00  0.00000000E+00  2.83756267E-04 -6.62508898E-04  3.78752631E-04
 -3.17692658E-04  0.00000000E+00  0.00000000E+00 -6.52677064E-05 -2.29432672E-04
  0.00000000E+00  5.86874535E-04  0.00000000E+00  0.00000000E+00  8.13359781E-04
 -6.17556661E-04  1.01423481E-04  0.00000000E+00  1.27037018E-01  2.37101152E-01
  4.04668293E-01  6.28894928E-01  8.42360308E-01  8.65286487E-01  5.59002531E-01
  1.65648641E-01  1.10594041E-02 -1.16224099E-02  5.53894586E-02  7.22214782E-04
 -1.15774285E-03 -1.23573416E-03 -1.08217981E-03 -6.83383061E-04  8.24567473E-04
  8.80114437E-04  7.70749980E-04  4.86719003E-04  0.00000000E+00  0.00000000E+00
  0.00000000E+00  0.00000000E+00  2.41997952E-03 -2.96703138E-03  0.00000000E+00
 -3.26380680E-03  1.22013885E-02  0.00000000E+00 -8.94025501E-04  1.81552153E-03
 -9.21496025E-04 -7.43403399E-04  0.00000000E+00  0.00000000E+00 -1.17801955E-04
 -2.81562027E-04  3.99363982E-04  1.20091860E-03  0.00000000E+00  0.00000000E+00
 -2.83756267E-04  6.62508898E-04 -3.78752631E-04 -3.17692658E-04  0.00000000E+00
  0.00000000E+00 -6.52677064E-05  2.29432672E-04  0.00000000E+00 -5.86874535E-04
  0.00000000E+00  0.00000000E+00  8.13359781E-04 -6.17556661E-04 -1.01423481E-04
  0.00000000E+00  1.27037018E-01  2.37101152E-01  4.04668293E-01  6.28894928E-01
  8.42360308E-01  8.65286487E-01  5.59002531E-01  1.65648641E-01  1.10594041E-02
 -1.16224099E-02  5.53894586E-02  7.22214782E-04  1.15774285E-03  1.23573416E-03
  1.08217981E-03  6.83383061E-04 -8.24567473E-04 -8.80114437E-04 -7.70749980E-04
 -4.86719003E-04  0.00000000E+00  0.00000000E+00  0.00000000E+00  0.00000000E+00
 -2.41997952E-03  2.96703138E-03  0.00000000E+00  3.26380680E-03 -1.22013885E-02
  0.00000000E+00 -8.94025501E-04  1.81552153E-03 -9.21496025E-04 -7.43403399E-04
  0.00000000E+00  0.00000000E+00 -1.17801955E-04 -2.81562027E-04  3.99363982E-04
  1.20091860E-03  0.00000000E+00  0.00000000E+00 -2.83756267E-04  6.62508898E-04
 -3.78752631E-04 -3.17692658E-04  0.00000000E+00  0.00000000E+00  6.52677064E-05
 -2.29432672E-04  0.00000000E+00  5.86874535E-04  0.00000000E+00  0.00000000E+00
 -8.13359781E-04  6.17556661E-04  1.01423481E-04  0.00000000E+00 -1.27037018E-01
 -2.37101152E-01 -4.04668293E-01 -6.28894928E-01 -8.42360308E-01 -8.65286487E-01
 -5.59002531E-01 -1.65648641E-01 -1.10594041E-02  1.16224099E-02 -5.53894586E-02
 -7.22214782E-04  1.15774285E-03  1.23573416E-03  1.08217981E-03  6.83383061E-04
  8.24567473E-04  8.80114437E-04  7.70749980E-04  4.86719003E-04  0.00000000E+00
  0.00000000E+00  0.00000000E+00  0.00000000E+00 -2.41997952E-03 -2.96703138E-03
  0.00000000E+00  3.26380680E-03  1.22013885E-02  0.00000000E+00  8.94025501E-04
 -1.81552153E-03  9.21496025E-04 -7.43403399E-04  0.00000000E+00  0.00000000E+00
  1.17801955E-04  2.81562027E-04 -3.99363982E-04  1.20091860E-03  0.00000000E+00
  0.00000000E+00  2.83756267E-04 -6.62508898E-04  3.78752631E-04 -3.17692658E-04
  0.00000000E+00  0.00000000E+00  6.52677064E-05  2.29432672E-04  0.00000000E+00
 -5.86874535E-04  0.00000000E+00  0.00000000E+00 -8.13359781E-04  6.17556661E-04
 -1.01423481E-04  0.00000000E+00  3.16544761E-05  5.71298859E-05  8.43428043E-05
 -3.56958011E-04 -4.63806665E-04  3.06178224E-04  7.13892083E-04  0.00000000E+00
 -3.76527800E-06 -6.50373476E-04  0.00000000E+00 -3.16544761E-05 -5.71298859E-05
 -8.43428043E-05  3.56958011E-04  4.63806665E-04  3.06178224E-04 -7.13892083E-04
  0.00000000E+00 -3.76527800E-06  6.50373476E-04  0.00000000E+00 -3.16544761E-05
 -5.71298859E-05 -8.43428043E-05  3.56958011E-04  4.63806665E-04 -3.06178224E-04
  7.13892083E-04  0.00000000E+00  3.76527800E-06 -6.50373476E-04  0.00000000E+00
  3.16544761E-05  5.71298859E-05  8.43428043E-05 -3.56958011E-04 -4.63806665E-04
 -3.06178224E-04 -7.13892083E-04  0.00000000E+00  3.76527800E-06  6.50373476E-04