    molecula                                                                    
GAUSSIAN             12 MOL ORBITALS    102 PRIMITIVES        2 NUCLEI
  N    1    (CENTRE  1)   0.00000000  0.00000000 -1.04512529  CHARGE =  7.0
  N    2    (CENTRE  2)   0.00000000  0.00000000  1.04512529  CHARGE =  7.0
CENTRE ASSIGNMENTS    1  1  1  1  1  1  1  1  1  1  1  1  1  1  1  1  1  1  1  1
CENTRE ASSIGNMENTS    1  1  1  1  1  1  1  1  1  1  1  1  1  1  1  1  1  1  1  1
CENTRE ASSIGNMENTS    1  1  1  1  1  1  1  1  1  1  1  2  2  2  2  2  2  2  2  2
CENTRE ASSIGNMENTS    2  2  2  2  2  2  2  2  2  2  2  2  2  2  2  2  2  2  2  2
CENTRE ASSIGNMENTS    2  2  2  2  2  2  2  2  2  2  2  2  2  2  2  2  2  2  2  2
CENTRE ASSIGNMENTS    2  2
TYPE ASSIGNMENTS      1  1  1  1  1  1  1  1  1  1  1  2  2  2  2  3  3  3  3  4
TYPE ASSIGNMENTS      4  4  4  2  3  4  2  3  4  5  6  7  8  9 10  5  6  7  8  9
TYPE ASSIGNMENTS     10 11 12 13 14 15 16 17 18 19 20  1  1  1  1  1  1  1  1  1
TYPE ASSIGNMENTS      1  1  2  2  2  2  3  3  3  3  4  4  4  4  2  3  4  2  3  4
TYPE ASSIGNMENTS      5  6  7  8  9 10  5  6  7  8  9 10 11 12 13 14 15 16 17 18
TYPE ASSIGNMENTS     19 20
EXPONENTS  1.3520000E+04 1.9990000E+03 4.4000000E+02 1.2090000E+02 3.8470000E+01
EXPONENTS  1.3460000E+01 1.3460000E+01 4.9930000E+00 1.5690000E+00 5.8000000E-01
EXPONENTS  1.9230000E-01 3.5910000E+01 8.4800000E+00 2.7060000E+00 9.9210000E-01
EXPONENTS  3.5910000E+01 8.4800000E+00 2.7060000E+00 9.9210000E-01 3.5910000E+01
EXPONENTS  8.4800000E+00 2.7060000E+00 9.9210000E-01 3.7270000E-01 3.7270000E-01
EXPONENTS  3.7270000E-01 1.3460000E-01 1.3460000E-01 1.3460000E-01 1.9600000E+00
EXPONENTS  1.9600000E+00 1.9600000E+00 1.9600000E+00 1.9600000E+00 1.9600000E+00
EXPONENTS  4.9000000E-01 4.9000000E-01 4.9000000E-01 4.9000000E-01 4.9000000E-01
EXPONENTS  4.9000000E-01 1.0000000E+00 1.0000000E+00 1.0000000E+00 1.0000000E+00
EXPONENTS  1.0000000E+00 1.0000000E+00 1.0000000E+00 1.0000000E+00 1.0000000E+00
EXPONENTS  1.0000000E+00 1.3520000E+04 1.9990000E+03 4.4000000E+02 1.2090000E+02
EXPONENTS  3.8470000E+01 1.3460000E+01 1.3460000E+01 4.9930000E+00 1.5690000E+00
EXPONENTS  5.8000000E-01 1.9230000E-01 3.5910000E+01 8.4800000E+00 2.7060000E+00
EXPONENTS  9.9210000E-01 3.5910000E+01 8.4800000E+00 2.7060000E+00 9.9210000E-01
EXPONENTS  3.5910000E+01 8.4800000E+00 2.7060000E+00 9.9210000E-01 3.7270000E-01
EXPONENTS  3.7270000E-01 3.7270000E-01 1.3460000E-01 1.3460000E-01 1.3460000E-01
EXPONENTS  1.9600000E+00 1.9600000E+00 1.9600000E+00 1.9600000E+00 1.9600000E+00
EXPONENTS  1.9600000E+00 4.9000000E-01 4.9000000E-01 4.9000000E-01 4.9000000E-01
EXPONENTS  4.9000000E-01 4.9000000E-01 1.0000000E+00 1.0000000E+00 1.0000000E+00
EXPONENTS  1.0000000E+00 1.0000000E+00 1.0000000E+00 1.0000000E+00 1.0000000E+00
EXPONENTS  1.0000000E+00 1.0000000E+00
MO  1                     OCC NO =    2.0000000  ORB. ENERGY =   0.0000000
  2.69670306E-01  5.14060669E-01  8.93042719E-01  1.36609722E+00  1.71913323E+00
  1.08650822E+00  4.26507165E-01  6.26907081E-01  3.83440159E-02 -6.87403661E-03
 -2.95727855E-03  0.00000000E+00  0.00000000E+00  0.00000000E+00  0.00000000E+00
  0.00000000E+00  0.00000000E+00  0.00000000E+00  0.00000000E+00  1.39653683E-02
  1.38893260E-02  1.10213309E-02  6.22355121E-03  0.00000000E+00  0.00000000E+00
  5.19235693E-03  0.00000000E+00  0.00000000E+00  6.84081188E-05  3.57476840E-03
  3.57476840E-03  7.64463950E-03  0.00000000E+00  0.00000000E+00  0.00000000E+00
  1.41827534E-03  1.41827534E-03  4.02358546E-03  0.00000000E+00  0.00000000E+00
  0.00000000E+00  0.00000000E+00  0.00000000E+00  1.08442009E-03  0.00000000E+00
 -1.40717135E-03 -1.40717135E-03  0.00000000E+00  0.00000000E+00  0.00000000E+00
  0.00000000E+00 -2.69670306E-01 -5.14060669E-01 -8.93042719E-01 -1.36609722E+00
 -1.71913323E+00 -1.08650822E+00 -4.26507165E-01 -6.26907081E-01 -3.83440159E-02
  6.87403661E-03  2.95727855E-03  0.00000000E+00  0.00000000E+00  0.00000000E+00
  0.00000000E+00  0.00000000E+00  0.00000000E+00  0.00000000E+00  0.00000000E+00
  1.39653683E-02  1.38893260E-02  1.10213309E-02  6.22355121E-03  0.00000000E+00
  0.00000000E+00  5.19235693E-03  0.00000000E+00  0.00000000E+00  6.84081188E-05
 -3.57476840E-03 -3.57476840E-03 -7.64463950E-03  0.00000000E+00  0.00000000E+00
  0.00000000E+00 -1.41827534E-03 -1.41827534E-03 -4.02358546E-03  0.00000000E+00
  0.00000000E+00  0.00000000E+00  0.00000000E+00  0.00000000E+00  1.08442009E-03
  0.00000000E+00 -1.40717135E-03 -1.40717135E-03  0.00000000E+00  0.00000000E+00
  0.00000000E+00  0.00000000E+00
MO  2                     OCC NO =    2.0000000  ORB. ENERGY =   0.0000000
  2.69658847E-01  5.14038825E-01  8.93004772E-01  1.36603917E+00  1.71906018E+00
  1.08646205E+00  4.26336179E-01  6.26655755E-01  3.86074702E-02 -9.59799387E-03
 -2.80805967E-03  0.00000000E+00  0.00000000E+00  0.00000000E+00  0.00000000E+00
  0.00000000E+00  0.00000000E+00  0.00000000E+00  0.00000000E+00  1.67831307E-02
  1.66917455E-02  1.32450812E-02  7.47926381E-03  0.00000000E+00  0.00000000E+00
  1.92413296E-03  0.00000000E+00  0.00000000E+00  2.71720202E-04  3.27827573E-03
  3.27827573E-03  7.51368981E-03  0.00000000E+00  0.00000000E+00  0.00000000E+00
  1.11335613E-03  1.11335613E-03  1.01429470E-03  0.00000000E+00  0.00000000E+00
  0.00000000E+00  0.00000000E+00  0.00000000E+00 -1.41820328E-03  0.00000000E+00
 -5.41704147E-04 -5.41704147E-04  0.00000000E+00  0.00000000E+00  0.00000000E+00
  0.00000000E+00  2.69658847E-01  5.14038825E-01  8.93004772E-01  1.36603917E+00
  1.71906018E+00  1.08646205E+00  4.26336179E-01  6.26655755E-01  3.86074702E-02
 -9.59799387E-03 -2.80805967E-03  0.00000000E+00  0.00000000E+00  0.00000000E+00
  0.00000000E+00  0.00000000E+00  0.00000000E+00  0.00000000E+00  0.00000000E+00
 -1.67831307E-02 -1.66917455E-02 -1.32450812E-02 -7.47926381E-03  0.00000000E+00
  0.00000000E+00 -1.92413296E-03  0.00000000E+00  0.00000000E+00 -2.71720202E-04
  3.27827573E-03  3.27827573E-03  7.51368981E-03  0.00000000E+00  0.00000000E+00
  0.00000000E+00  1.11335613E-03  1.11335613E-03  1.01429470E-03  0.00000000E+00
  0.00000000E+00  0.00000000E+00  0.00000000E+00  0.00000000E+00  1.41820328E-03
  0.00000000E+00  5.41704147E-04  5.41704147E-04  0.00000000E+00  0.00000000E+00
  0.00000000E+00  0.00000000E+00
MO  3                     OCC NO =    1.9935834  ORB. ENERGY =   0.0000000
 -5.39721763E-02 -1.02884791E-01 -1.78734766E-01 -2.73412527E-01 -3.44069628E-01
 -2.17455210E-01 -1.80903521E-01 -2.65903384E-01  4.97116310E-02  1.77657678E-01
  5.85266303E-02  0.00000000E+00  0.00000000E+00  0.00000000E+00  0.00000000E+00
  0.00000000E+00  0.00000000E+00  0.00000000E+00  0.00000000E+00 -9.21648904E-02
 -9.16630469E-02 -7.27356226E-02 -4.10725235E-02  0.00000000E+00  0.00000000E+00
 -2.36947495E-02  0.00000000E+00  0.00000000E+00 -5.38259957E-03  2.33588366E-03
  2.33588366E-03  4.60739004E-02  0.00000000E+00  0.00000000E+00  0.00000000E+00
 -4.36682598E-03 -4.36682598E-03  1.68021882E-03  0.00000000E+00  0.00000000E+00
  0.00000000E+00  0.00000000E+00  0.00000000E+00  6.64293232E-03  0.00000000E+00
 -4.90137355E-03 -4.90137355E-03  0.00000000E+00  0.00000000E+00  0.00000000E+00
  0.00000000E+00 -5.39721763E-02 -1.02884791E-01 -1.78734766E-01 -2.73412527E-01
 -3.44069628E-01 -2.17455210E-01 -1.80903521E-01 -2.65903384E-01  4.97116310E-02
  1.77657678E-01  5.85266303E-02  0.00000000E+00  0.00000000E+00  0.00000000E+00
  0.00000000E+00  0.00000000E+00  0.00000000E+00  0.00000000E+00  0.00000000E+00
  9.21648904E-02  9.16630469E-02  7.27356226E-02  4.10725235E-02  0.00000000E+00
  0.00000000E+00  2.36947495E-02  0.00000000E+00  0.00000000E+00  5.38259957E-03
  2.33588366E-03  2.33588366E-03  4.60739004E-02  0.00000000E+00  0.00000000E+00
  0.00000000E+00 -4.36682598E-03 -4.36682598E-03  1.68021882E-03  0.00000000E+00
  0.00000000E+00  0.00000000E+00  0.00000000E+00  0.00000000E+00 -6.64293232E-03
  0.00000000E+00  4.90137355E-03  4.90137355E-03  0.00000000E+00  0.00000000E+00
  0.00000000E+00  0.00000000E+00
MO  4                     OCC NO =    1.9835964  ORB. ENERGY =   0.0000000
 -4.90597467E-02 -9.35204421E-02 -1.62466718E-01 -2.48527116E-01 -3.12753162E-01
 -1.97662912E-01 -1.68158608E-01 -2.47170108E-01  5.46006050E-02  1.82261595E-01
  6.35122221E-02  0.00000000E+00  0.00000000E+00  0.00000000E+00  0.00000000E+00
  0.00000000E+00  0.00000000E+00  0.00000000E+00  0.00000000E+00 -3.43680212E-01
 -3.41808852E-01 -2.71229034E-01 -1.53158253E-01  0.00000000E+00  0.00000000E+00
 -5.32481217E-02  0.00000000E+00  0.00000000E+00 -5.98017770E-03  3.44825713E-02
  3.44825713E-02  3.20665421E-03  0.00000000E+00  0.00000000E+00  0.00000000E+00
  6.67152070E-03  6.67152070E-03 -4.49681987E-03  0.00000000E+00  0.00000000E+00
  0.00000000E+00  0.00000000E+00  0.00000000E+00 -1.83439823E-03  0.00000000E+00
  1.22451354E-03  1.22451354E-03  0.00000000E+00  0.00000000E+00  0.00000000E+00
  0.00000000E+00  4.90597467E-02  9.35204421E-02  1.62466718E-01  2.48527116E-01
  3.12753162E-01  1.97662912E-01  1.68158608E-01  2.47170108E-01 -5.46006050E-02
 -1.82261595E-01 -6.35122221E-02  0.00000000E+00  0.00000000E+00  0.00000000E+00
  0.00000000E+00  0.00000000E+00  0.00000000E+00  0.00000000E+00  0.00000000E+00
 -3.43680212E-01 -3.41808852E-01 -2.71229034E-01 -1.53158253E-01  0.00000000E+00
  0.00000000E+00 -5.32481217E-02  0.00000000E+00  0.00000000E+00 -5.98017770E-03
 -3.44825713E-02 -3.44825713E-02 -3.20665421E-03  0.00000000E+00  0.00000000E+00
  0.00000000E+00 -6.67152070E-03 -6.67152070E-03  4.49681987E-03  0.00000000E+00
  0.00000000E+00  0.00000000E+00  0.00000000E+00  0.00000000E+00 -1.83439823E-03
  0.00000000E+00  1.22451354E-03  1.22451354E-03  0.00000000E+00  0.00000000E+00
  0.00000000E+00  0.00000000E+00
MO  5                     OCC NO =    1.9766837  ORB. ENERGY =   0.0000000
  1.92025208E-02  3.66049226E-02  6.35912483E-02  9.72762281E-02  1.22415004E-01
  7.73674229E-02  4.71132279E-02  6.92499883E-02 -2.57495032E-02 -2.27787459E-02
  4.49085930E-02  0.00000000E+00  0.00000000E+00  0.00000000E+00  0.00000000E+00
  0.00000000E+00  0.00000000E+00  0.00000000E+00  0.00000000E+00 -8.66271781E-01
 -8.61554877E-01 -6.83653146E-01 -3.86046876E-01  0.00000000E+00  0.00000000E+00
 -9.97114552E-02  0.00000000E+00  0.00000000E+00 -9.65300933E-03  1.13379417E-02
  1.13379417E-02 -1.59216937E-01  0.00000000E+00  0.00000000E+00  0.00000000E+00
 -3.96029537E-03 -3.96029537E-03 -2.56799224E-02  0.00000000E+00  0.00000000E+00
  0.00000000E+00  0.00000000E+00  0.00000000E+00 -3.01303233E-03  0.00000000E+00
  2.15252835E-02  2.15252835E-02  0.00000000E+00  0.00000000E+00  0.00000000E+00
  0.00000000E+00  1.92025208E-02  3.66049226E-02  6.35912483E-02  9.72762281E-02
  1.22415004E-01  7.73674229E-02  4.71132279E-02  6.92499883E-02 -2.57495032E-02
 -2.27787459E-02  4.49085930E-02  0.00000000E+00  0.00000000E+00  0.00000000E+00
  0.00000000E+00  0.00000000E+00  0.00000000E+00  0.00000000E+00  0.00000000E+00
  8.66271781E-01  8.61554877E-01  6.83653146E-01  3.86046876E-01  0.00000000E+00
  0.00000000E+00  9.97114552E-02  0.00000000E+00  0.00000000E+00  9.65300933E-03
  1.13379417E-02  1.13379417E-02 -1.59216937E-01  0.00000000E+00  0.00000000E+00
  0.00000000E+00 -3.96029537E-03 -3.96029537E-03 -2.56799224E-02  0.00000000E+00
  0.00000000E+00  0.00000000E+00  0.00000000E+00  0.00000000E+00  3.01303233E-03
  0.00000000E+00 -2.15252835E-02 -2.15252835E-02  0.00000000E+00  0.00000000E+00
  0.00000000E+00  0.00000000E+00
MO  6                     OCC NO =    1.9380022  ORB. ENERGY =   0.0000000
  0.00000000E+00  0.00000000E+00  0.00000000E+00  0.00000000E+00  0.00000000E+00
  0.00000000E+00  0.00000000E+00  0.00000000E+00  0.00000000E+00  0.00000000E+00
  0.00000000E+00  3.83428716E-04  3.81340923E-04  3.02598161E-04  1.70871846E-04
 -7.34406522E-01 -7.30407634E-01 -5.79586385E-01 -3.27282211E-01  0.00000000E+00
  0.00000000E+00  0.00000000E+00  0.00000000E+00  5.51851581E-05 -1.05699804E-01
  0.00000000E+00  6.07644308E-06 -1.16386156E-02  0.00000000E+00  0.00000000E+00
  0.00000000E+00  0.00000000E+00  0.00000000E+00  7.61382366E-05 -1.45832629E-01
  0.00000000E+00  0.00000000E+00  0.00000000E+00  0.00000000E+00  1.55798718E-05
 -2.98411648E-02 -4.19688325E-06  8.03856963E-03  0.00000000E+00  8.03858166E-03
  0.00000000E+00  0.00000000E+00 -4.19688953E-06  1.57425825E-05 -3.01528153E-02
  0.00000000E+00  0.00000000E+00  0.00000000E+00  0.00000000E+00  0.00000000E+00
  0.00000000E+00  0.00000000E+00  0.00000000E+00  0.00000000E+00  0.00000000E+00
  0.00000000E+00  0.00000000E+00  3.83428716E-04  3.81340923E-04  3.02598161E-04
  1.70871846E-04 -7.34406522E-01 -7.30407634E-01 -5.79586385E-01 -3.27282211E-01
  0.00000000E+00  0.00000000E+00  0.00000000E+00  0.00000000E+00  5.51851581E-05
 -1.05699804E-01  0.00000000E+00  6.07644308E-06 -1.16386156E-02  0.00000000E+00
  0.00000000E+00  0.00000000E+00  0.00000000E+00  0.00000000E+00 -7.61382366E-05
  1.45832629E-01  0.00000000E+00  0.00000000E+00  0.00000000E+00  0.00000000E+00
 -1.55798718E-05  2.98411648E-02 -4.19688325E-06  8.03856963E-03  0.00000000E+00
  8.03858166E-03  0.00000000E+00  0.00000000E+00 -4.19688953E-06  1.57425825E-05
 -3.01528153E-02  0.00000000E+00
MO  7                     OCC NO =    1.9380022  ORB. ENERGY =   0.0000000
  0.00000000E+00  0.00000000E+00  0.00000000E+00  0.00000000E+00  0.00000000E+00
  0.00000000E+00  0.00000000E+00  0.00000000E+00  0.00000000E+00  0.00000000E+00
  0.00000000E+00 -7.34406522E-01 -7.30407634E-01 -5.79586385E-01 -3.27282211E-01
 -3.83428716E-04 -3.81340923E-04 -3.02598161E-04 -1.70871846E-04  0.00000000E+00
  0.00000000E+00  0.00000000E+00  0.00000000E+00 -1.05699804E-01 -5.51851581E-05
  0.00000000E+00 -1.16386156E-02 -6.07644308E-06  0.00000000E+00  0.00000000E+00
  0.00000000E+00  0.00000000E+00  0.00000000E+00 -1.45832629E-01 -7.61382366E-05
  0.00000000E+00  0.00000000E+00  0.00000000E+00  0.00000000E+00 -2.98411648E-02
 -1.55798718E-05  8.03856963E-03  4.19688325E-06  0.00000000E+00  4.19688953E-06
  0.00000000E+00  0.00000000E+00  8.03858166E-03 -3.01528153E-02 -1.57425825E-05
  0.00000000E+00  0.00000000E+00  0.00000000E+00  0.00000000E+00  0.00000000E+00
  0.00000000E+00  0.00000000E+00  0.00000000E+00  0.00000000E+00  0.00000000E+00
  0.00000000E+00  0.00000000E+00 -7.34406522E-01 -7.30407634E-01 -5.79586385E-01
 -3.27282211E-01 -3.83428716E-04 -3.81340923E-04 -3.02598161E-04 -1.70871846E-04
  0.00000000E+00  0.00000000E+00  0.00000000E+00  0.00000000E+00 -1.05699804E-01
 -5.51851581E-05  0.00000000E+00 -1.16386156E-02 -6.07644308E-06  0.00000000E+00
  0.00000000E+00  0.00000000E+00  0.00000000E+00  0.00000000E+00  1.45832629E-01
  7.61382366E-05  0.00000000E+00  0.00000000E+00  0.00000000E+00  0.00000000E+00
  2.98411648E-02  1.55798718E-05  8.03856963E-03  4.19688325E-06  0.00000000E+00
  4.19688953E-06  0.00000000E+00  0.00000000E+00  8.03858166E-03 -3.01528153E-02
 -1.57425825E-05  0.00000000E+00
MO  8                     OCC NO =    0.0700837  ORB. ENERGY =   0.0000000
  0.00000000E+00  0.00000000E+00  0.00000000E+00  0.00000000E+00  0.00000000E+00
  0.00000000E+00  0.00000000E+00  0.00000000E+00  0.00000000E+00  0.00000000E+00
  0.00000000E+00 -1.11798950E+00 -1.11190198E+00 -8.82306288E-01 -4.98222802E-01
 -5.23639196E-04 -5.20787948E-04 -4.13250889E-04 -2.33355490E-04  0.00000000E+00
  0.00000000E+00  0.00000000E+00  0.00000000E+00 -1.28765766E-01 -6.03107651E-05
  0.00000000E+00 -5.68329523E-03 -2.66191779E-06  0.00000000E+00  0.00000000E+00
  0.00000000E+00  0.00000000E+00  0.00000000E+00  5.87606182E-02  2.75220499E-05
  0.00000000E+00  0.00000000E+00  0.00000000E+00  0.00000000E+00  4.83544642E-03
  2.26480595E-06 -2.16331105E-02 -1.01324248E-05  0.00000000E+00 -1.01323106E-05
  0.00000000E+00  0.00000000E+00 -2.16328666E-02 -2.03510235E-02 -9.53192637E-06
  0.00000000E+00  0.00000000E+00  0.00000000E+00  0.00000000E+00  0.00000000E+00
  0.00000000E+00  0.00000000E+00  0.00000000E+00  0.00000000E+00  0.00000000E+00
  0.00000000E+00  0.00000000E+00  1.11798950E+00  1.11190198E+00  8.82306288E-01
  4.98222802E-01  5.23639196E-04  5.20787948E-04  4.13250889E-04  2.33355490E-04
  0.00000000E+00  0.00000000E+00  0.00000000E+00  0.00000000E+00  1.28765766E-01
  6.03107651E-05  0.00000000E+00  5.68329523E-03  2.66191779E-06  0.00000000E+00
  0.00000000E+00  0.00000000E+00  0.00000000E+00  0.00000000E+00  5.87606182E-02
  2.75220499E-05  0.00000000E+00  0.00000000E+00  0.00000000E+00  0.00000000E+00
  4.83544642E-03  2.26480595E-06  2.16331105E-02  1.01324248E-05  0.00000000E+00
  1.01323106E-05  0.00000000E+00  0.00000000E+00  2.16328666E-02  2.03510235E-02
  9.53192637E-06  0.00000000E+00
MO  9                     OCC NO =    0.0700837  ORB. ENERGY =   0.0000000
  0.00000000E+00  0.00000000E+00  0.00000000E+00  0.00000000E+00  0.00000000E+00
  0.00000000E+00  0.00000000E+00  0.00000000E+00  0.00000000E+00  0.00000000E+00
  0.00000000E+00 -5.23639196E-04 -5.20787948E-04 -4.13250889E-04 -2.33355490E-04
  1.11798950E+00  1.11190198E+00  8.82306288E-01  4.98222802E-01  0.00000000E+00
  0.00000000E+00  0.00000000E+00  0.00000000E+00 -6.03107651E-05  1.28765766E-01
  0.00000000E+00 -2.66191779E-06  5.68329523E-03  0.00000000E+00  0.00000000E+00
  0.00000000E+00  0.00000000E+00  0.00000000E+00  2.75220499E-05 -5.87606182E-02
  0.00000000E+00  0.00000000E+00  0.00000000E+00  0.00000000E+00  2.26480595E-06
 -4.83544642E-03 -1.01324248E-05  2.16331105E-02  0.00000000E+00  2.16328666E-02
  0.00000000E+00  0.00000000E+00 -1.01323106E-05 -9.53192637E-06  2.03510235E-02
  0.00000000E+00  0.00000000E+00  0.00000000E+00  0.00000000E+00  0.00000000E+00
  0.00000000E+00  0.00000000E+00  0.00000000E+00  0.00000000E+00  0.00000000E+00
  0.00000000E+00  0.00000000E+00  5.23639196E-04  5.20787948E-04  4.13250889E-04
  2.33355490E-04 -1.11798950E+00 -1.11190198E+00 -8.82306288E-01 -4.98222802E-01
  0.00000000E+00  0.00000000E+00  0.00000000E+00  0.00000000E+00  6.03107651E-05
 -1.28765766E-01  0.00000000E+00  2.66191779E-06 -5.68329523E-03  0.00000000E+00
  0.00000000E+00  0.00000000E+00  0.00000000E+00  0.00000000E+00  2.75220499E-05
 -5.87606182E-02  0.00000000E+00  0.00000000E+00  0.00000000E+00  0.00000000E+00
  2.26480595E-06 -4.83544642E-03  1.01324248E-05 -2.16331105E-02  0.00000000E+00
 -2.16328666E-02  0.00000000E+00  0.00000000E+00  1.01323106E-05  9.53192637E-06
 -2.03510235E-02  0.00000000E+00
MO 10                     OCC NO =    0.0211485  ORB. ENERGY =   0.0000000
 -4.94048025E-02 -9.41782068E-02 -1.63609408E-01 -2.50275102E-01 -3.14952874E-01
 -1.99053150E-01 -1.66794300E-01 -2.45164763E-01  8.89870172E-02  2.11537062E-01
  3.63648784E-02  0.00000000E+00  0.00000000E+00  0.00000000E+00  0.00000000E+00
  0.00000000E+00  0.00000000E+00  0.00000000E+00  0.00000000E+00  1.44433234E+00
  1.43646786E+00  1.13985284E+00  6.43654796E-01  0.00000000E+00  0.00000000E+00
  7.51816685E-02  0.00000000E+00  0.00000000E+00  3.33681556E-03  1.10476993E-01
  1.10476993E-01 -2.14125144E-02  0.00000000E+00  0.00000000E+00  0.00000000E+00
  9.09245006E-03  9.09245006E-03 -5.74198232E-02  0.00000000E+00  0.00000000E+00
  0.00000000E+00  0.00000000E+00  0.00000000E+00 -3.49830188E-02  0.00000000E+00
  6.44985804E-02  6.44985804E-02  0.00000000E+00  0.00000000E+00  0.00000000E+00
  0.00000000E+00  4.94048025E-02  9.41782068E-02  1.63609408E-01  2.50275102E-01
  3.14952874E-01  1.99053150E-01  1.66794300E-01  2.45164763E-01 -8.89870172E-02
 -2.11537062E-01 -3.63648784E-02  0.00000000E+00  0.00000000E+00  0.00000000E+00
  0.00000000E+00  0.00000000E+00  0.00000000E+00  0.00000000E+00  0.00000000E+00
  1.44433234E+00  1.43646786E+00  1.13985284E+00  6.43654796E-01  0.00000000E+00
  0.00000000E+00  7.51816685E-02  0.00000000E+00  0.00000000E+00  3.33681556E-03
 -1.10476993E-01 -1.10476993E-01  2.14125144E-02  0.00000000E+00  0.00000000E+00
  0.00000000E+00 -9.09245006E-03 -9.09245006E-03  5.74198232E-02  0.00000000E+00
  0.00000000E+00  0.00000000E+00  0.00000000E+00  0.00000000E+00 -3.49830188E-02
  0.00000000E+00  6.44985804E-02  6.44985804E-02  0.00000000E+00  0.00000000E+00
  0.00000000E+00  0.00000000E+00
MO 11                     OCC NO =    0.0044082  ORB. ENERGY =   0.0000000
  0.00000000E+00  0.00000000E+00  0.00000000E+00  0.00000000E+00  0.00000000E+00
  0.00000000E+00  0.00000000E+00  0.00000000E+00  0.00000000E+00  0.00000000E+00
  0.00000000E+00  8.02370821E-07  7.98001863E-07  6.33223139E-07  3.57569941E-07
 -2.76895706E-01 -2.75387992E-01 -2.18523361E-01 -1.23396288E-01  0.00000000E+00
  0.00000000E+00  0.00000000E+00  0.00000000E+00  1.41415397E-07 -4.88020192E-02
  0.00000000E+00  8.86789569E-09 -3.06028357E-03  0.00000000E+00  0.00000000E+00
  0.00000000E+00  0.00000000E+00  0.00000000E+00 -7.16511910E-06  2.47266059E+00
  0.00000000E+00  0.00000000E+00  0.00000000E+00  0.00000000E+00 -1.06975583E-06
  3.69169451E-01  1.14525639E-07 -3.95224464E-02  0.00000000E+00 -3.95224459E-02
  0.00000000E+00  0.00000000E+00  1.14525638E-07 -6.32156588E-07  2.18155297E-01
  0.00000000E+00  0.00000000E+00  0.00000000E+00  0.00000000E+00  0.00000000E+00
  0.00000000E+00  0.00000000E+00  0.00000000E+00  0.00000000E+00  0.00000000E+00
  0.00000000E+00  0.00000000E+00  8.02370821E-07  7.98001863E-07  6.33223139E-07
  3.57569940E-07 -2.76895706E-01 -2.75387992E-01 -2.18523361E-01 -1.23396288E-01
  0.00000000E+00  0.00000000E+00  0.00000000E+00  0.00000000E+00  1.41415397E-07
 -4.88020192E-02  0.00000000E+00  8.86789569E-09 -3.06028357E-03  0.00000000E+00
  0.00000000E+00  0.00000000E+00  0.00000000E+00  0.00000000E+00  7.16511910E-06
 -2.47266059E+00  0.00000000E+00  0.00000000E+00  0.00000000E+00  0.00000000E+00
  1.06975583E-06 -3.69169451E-01  1.14525639E-07 -3.95224464E-02  0.00000000E+00
 -3.95224459E-02  0.00000000E+00  0.00000000E+00  1.14525638E-07 -6.32156588E-07
  2.18155297E-01  0.00000000E+00
MO 12                     OCC NO =    0.0044082  ORB. ENERGY =   0.0000000
  0.00000000E+00  0.00000000E+00  0.00000000E+00  0.00000000E+00  0.00000000E+00
  0.00000000E+00  0.00000000E+00  0.00000000E+00  0.00000000E+00  0.00000000E+00
  0.00000000E+00 -2.76895706E-01 -2.75387992E-01 -2.18523361E-01 -1.23396288E-01
 -8.02370821E-07 -7.98001862E-07 -6.33223139E-07 -3.57569940E-07  0.00000000E+00
  0.00000000E+00  0.00000000E+00  0.00000000E+00 -4.88020192E-02 -1.41415397E-07
  0.00000000E+00 -3.06028357E-03 -8.86789568E-09  0.00000000E+00  0.00000000E+00
  0.00000000E+00  0.00000000E+00  0.00000000E+00  2.47266059E+00  7.16511910E-06
  0.00000000E+00  0.00000000E+00  0.00000000E+00  0.00000000E+00  3.69169451E-01
  1.06975583E-06 -3.95224464E-02 -1.14525639E-07  0.00000000E+00 -1.14525638E-07
  0.00000000E+00  0.00000000E+00 -3.95224459E-02  2.18155297E-01  6.32156588E-07
  0.00000000E+00  0.00000000E+00  0.00000000E+00  0.00000000E+00  0.00000000E+00
  0.00000000E+00  0.00000000E+00  0.00000000E+00  0.00000000E+00  0.00000000E+00
  0.00000000E+00  0.00000000E+00 -2.76895706E-01 -2.75387992E-01 -2.18523361E-01
 -1.23396288E-01 -8.02370822E-07 -7.98001864E-07 -6.33223140E-07 -3.57569941E-07
  0.00000000E+00  0.00000000E+00  0.00000000E+00  0.00000000E+00 -4.88020192E-02
 -1.41415397E-07  0.00000000E+00 -3.06028357E-03 -8.86789569E-09  0.00000000E+00
  0.00000000E+00  0.00000000E+00  0.00000000E+00  0.00000000E+00 -2.47266059E+00
 -7.16511910E-06  0.00000000E+00  0.00000000E+00  0.00000000E+00  0.00000000E+00
 -3.69169451E-01 -1.06975583E-06 -3.95224464E-02 -1.14525639E-07  0.00000000E+00
 -1.14525638E-07  0.00000000E+00  0.00000000E+00 -3.95224459E-02  2.18155297E-01
  6.32156588E-07  0.00000000E+00
END DATA
ALDET    ENERGY =     -109.1578036165   VIRIAL(-V/T)  =   2.00005523
CANONICAL ORBITALS
CANMO  1
  2.69670306E-01  5.14060669E-01  8.93042719E-01  1.36609722E+00  1.71913323E+00
  1.08650822E+00  4.26507165E-01  6.26907081E-01  3.83440159E-02 -6.87403661E-03
 -2.95727855E-03  0.00000000E+00  0.00000000E+00  0.00000000E+00  0.00000000E+00
  0.00000000E+00  0.00000000E+00  0.00000000E+00  0.00000000E+00  1.39653683E-02
  1.38893260E-02  1.10213309E-02  6.22355121E-03  0.00000000E+00  0.00000000E+00
  5.19235693E-03  0.00000000E+00  0.00000000E+00  6.84081188E-05  3.57476840E-03
  3.57476840E-03  7.64463950E-03  0.00000000E+00  0.00000000E+00  0.00000000E+00
  1.41827534E-03  1.41827534E-03  4.02358546E-03  0.00000000E+00  0.00000000E+00
  0.00000000E+00  0.00000000E+00  0.00000000E+00  1.08442009E-03  0.00000000E+00
 -1.40717135E-03 -1.40717135E-03  0.00000000E+00  0.00000000E+00  0.00000000E+00
  0.00000000E+00 -2.69670306E-01 -5.14060669E-01 -8.93042719E-01 -1.36609722E+00
 -1.71913323E+00 -1.08650822E+00 -4.26507165E-01 -6.26907081E-01 -3.83440159E-02
  6.87403661E-03  2.95727855E-03  0.00000000E+00  0.00000000E+00  0.00000000E+00
  0.00000000E+00  0.00000000E+00  0.00000000E+00  0.00000000E+00  0.00000000E+00
  1.39653683E-02  1.38893260E-02  1.10213309E-02  6.22355121E-03  0.00000000E+00
  0.00000000E+00  5.19235693E-03  0.00000000E+00  0.00000000E+00  6.84081188E-05
 -3.57476840E-03 -3.57476840E-03 -7.64463950E-03  0.00000000E+00  0.00000000E+00
  0.00000000E+00 -1.41827534E-03 -1.41827534E-03 -4.02358546E-03  0.00000000E+00
  0.00000000E+00  0.00000000E+00  0.00000000E+00  0.00000000E+00  1.08442009E-03
  0.00000000E+00 -1.40717135E-03 -1.40717135E-03  0.00000000E+00  0.00000000E+00
  0.00000000E+00  0.00000000E+00
CANMO  2
  2.69658847E-01  5.14038825E-01  8.93004772E-01  1.36603917E+00  1.71906018E+00
  1.08646205E+00  4.26336179E-01  6.26655755E-01  3.86074702E-02 -9.59799387E-03
 -2.80805967E-03  0.00000000E+00  0.00000000E+00  0.00000000E+00  0.00000000E+00
  0.00000000E+00  0.00000000E+00  0.00000000E+00  0.00000000E+00  1.67831307E-02
  1.66917455E-02  1.32450812E-02  7.47926381E-03  0.00000000E+00  0.00000000E+00
  1.92413296E-03  0.00000000E+00  0.00000000E+00  2.71720202E-04  3.27827573E-03
  3.27827573E-03  7.51368981E-03  0.00000000E+00  0.00000000E+00  0.00000000E+00
  1.11335613E-03  1.11335613E-03  1.01429470E-03  0.00000000E+00  0.00000000E+00
  0.00000000E+00  0.00000000E+00  0.00000000E+00 -1.41820328E-03  0.00000000E+00
 -5.41704147E-04 -5.41704147E-04  0.00000000E+00  0.00000000E+00  0.00000000E+00
  0.00000000E+00  2.69658847E-01  5.14038825E-01  8.93004772E-01  1.36603917E+00
  1.71906018E+00  1.08646205E+00  4.26336179E-01  6.26655755E-01  3.86074702E-02
 -9.59799387E-03 -2.80805967E-03  0.00000000E+00  0.00000000E+00  0.00000000E+00
  0.00000000E+00  0.00000000E+00  0.00000000E+00  0.00000000E+00  0.00000000E+00
 -1.67831307E-02 -1.66917455E-02 -1.32450812E-02 -7.47926381E-03  0.00000000E+00
  0.00000000E+00 -1.92413296E-03  0.00000000E+00  0.00000000E+00 -2.71720202E-04
  3.27827573E-03  3.27827573E-03  7.51368981E-03  0.00000000E+00  0.00000000E+00
  0.00000000E+00  1.11335613E-03  1.11335613E-03  1.01429470E-03  0.00000000E+00
  0.00000000E+00  0.00000000E+00  0.00000000E+00  0.00000000E+00  1.41820328E-03
  0.00000000E+00  5.41704147E-04  5.41704147E-04  0.00000000E+00  0.00000000E+00
  0.00000000E+00  0.00000000E+00
CANMO  3
 -5.59223112E-02 -1.06602248E-01 -1.85192851E-01 -2.83291530E-01 -3.56501630E-01
 -2.25312351E-01 -1.78270133E-01 -2.62032664E-01  5.57939873E-02  1.62584797E-01
  2.56987133E-02  0.00000000E+00  0.00000000E+00  0.00000000E+00  0.00000000E+00
  0.00000000E+00  0.00000000E+00  0.00000000E+00  0.00000000E+00  3.82443129E-01
  3.80360703E-01  3.01820346E-01  1.70432627E-01  0.00000000E+00  0.00000000E+00
  3.29368040E-02  0.00000000E+00  0.00000000E+00  5.72449793E-04 -4.04871553E-03
 -4.04871553E-03  1.23663590E-01  0.00000000E+00  0.00000000E+00  0.00000000E+00
 -1.59341591E-03 -1.59341591E-03  1.50744860E-02  0.00000000E+00  0.00000000E+00
  0.00000000E+00  0.00000000E+00  0.00000000E+00  7.22826664E-03  0.00000000E+00
 -1.55942084E-02 -1.55942084E-02  0.00000000E+00  0.00000000E+00  0.00000000E+00
  0.00000000E+00 -5.59223112E-02 -1.06602248E-01 -1.85192851E-01 -2.83291530E-01
 -3.56501630E-01 -2.25312351E-01 -1.78270133E-01 -2.62032664E-01  5.57939873E-02
  1.62584797E-01  2.56987133E-02  0.00000000E+00  0.00000000E+00  0.00000000E+00
  0.00000000E+00  0.00000000E+00  0.00000000E+00  0.00000000E+00  0.00000000E+00
 -3.82443129E-01 -3.80360703E-01 -3.01820346E-01 -1.70432627E-01  0.00000000E+00
  0.00000000E+00 -3.29368040E-02  0.00000000E+00  0.00000000E+00 -5.72449793E-04
 -4.04871553E-03 -4.04871553E-03  1.23663590E-01  0.00000000E+00  0.00000000E+00
  0.00000000E+00 -1.59341591E-03 -1.59341591E-03  1.50744860E-02  0.00000000E+00
  0.00000000E+00  0.00000000E+00  0.00000000E+00  0.00000000E+00 -7.22826664E-03
  0.00000000E+00  1.55942084E-02  1.55942084E-02  0.00000000E+00  0.00000000E+00
  0.00000000E+00  0.00000000E+00
CANMO  4
  4.92052628E-02  9.37978331E-02  1.62948611E-01  2.49264272E-01  3.13680819E-01
  1.98249200E-01  1.68649870E-01  2.47892196E-01 -5.48628528E-02 -1.82884774E-01
 -6.36192114E-02  0.00000000E+00  0.00000000E+00  0.00000000E+00  0.00000000E+00
  0.00000000E+00  0.00000000E+00  0.00000000E+00  0.00000000E+00  3.39418364E-01
  3.37570210E-01  2.67865625E-01  1.51258995E-01  0.00000000E+00  0.00000000E+00
  5.30261264E-02  0.00000000E+00  0.00000000E+00  5.97030906E-03 -3.48082957E-02
 -3.48082957E-02 -3.14347967E-03  0.00000000E+00  0.00000000E+00  0.00000000E+00
 -6.69831172E-03 -6.69831172E-03  4.66617181E-03  0.00000000E+00  0.00000000E+00
  0.00000000E+00  0.00000000E+00  0.00000000E+00  1.93757981E-03  0.00000000E+00
 -1.41475996E-03 -1.41475996E-03  0.00000000E+00  0.00000000E+00  0.00000000E+00
  0.00000000E+00 -4.92052628E-02 -9.37978331E-02 -1.62948611E-01 -2.49264272E-01
 -3.13680819E-01 -1.98249200E-01 -1.68649870E-01 -2.47892196E-01  5.48628528E-02
  1.82884774E-01  6.36192114E-02  0.00000000E+00  0.00000000E+00  0.00000000E+00
  0.00000000E+00  0.00000000E+00  0.00000000E+00  0.00000000E+00  0.00000000E+00
  3.39418364E-01  3.37570210E-01  2.67865625E-01  1.51258995E-01  0.00000000E+00
  0.00000000E+00  5.30261264E-02  0.00000000E+00  0.00000000E+00  5.97030906E-03