[Molden Format]
[Atoms] AU
N      1  7     0.000000     0.000000    -0.652532
N      2  7     2.022602     0.000000    -2.124121
N      3  7    -2.022602     0.000000    -2.124121
N      4  7     3.869623     0.000000    -2.959483
N      5  7    -3.869623     0.000000    -2.959483
[GTO]
  1 0
 s   1 1.00
             6293.4800000000  1.00000000
 s   1 1.00
              949.0440000000  1.00000000
 s   1 1.00
              218.7760000000  1.00000000
 s   1 1.00
               63.6916000000  1.00000000
 s   1 1.00
               18.8282000000  1.00000000
 s   1 1.00
                2.7202300000  1.00000000
 s   1 1.00
               30.6331000000  1.00000000
 s   1 1.00
                7.0261400000  1.00000000
 s   1 1.00
                2.1120500000  1.00000000
 p   1 1.00
               30.6331000000  1.00000000
 p   1 1.00
                7.0261400000  1.00000000
 p   1 1.00
                2.1120500000  1.00000000
 s   1 1.00
                0.6840090000  1.00000000
 p   1 1.00
                0.6840090000  1.00000000
 s   1 1.00
                0.2008780000  1.00000000
 p   1 1.00
                0.2008780000  1.00000000
 s   1 1.00
                0.0639000000  1.00000000
 p   1 1.00
                0.0639000000  1.00000000
 d   1 1.00
                0.9130000000  1.00000000
  
  2 0
 s   1 1.00
             6293.4800000000  1.00000000
 s   1 1.00
              949.0440000000  1.00000000
 s   1 1.00
              218.7760000000  1.00000000
 s   1 1.00
               63.6916000000  1.00000000
 s   1 1.00
               18.8282000000  1.00000000
 s   1 1.00
                2.7202300000  1.00000000
 s   1 1.00
               30.6331000000  1.00000000
 s   1 1.00
                7.0261400000  1.00000000
 s   1 1.00
                2.1120500000  1.00000000
 p   1 1.00
               30.6331000000  1.00000000
 p   1 1.00
                7.0261400000  1.00000000
 p   1 1.00
                2.1120500000  1.00000000
 s   1 1.00
                0.6840090000  1.00000000
 p   1 1.00
                0.6840090000  1.00000000
 s   1 1.00
                0.2008780000  1.00000000
 p   1 1.00
                0.2008780000  1.00000000
 s   1 1.00
                0.0639000000  1.00000000
 p   1 1.00
                0.0639000000  1.00000000
 d   1 1.00
                0.9130000000  1.00000000
  
  3 0
 s   1 1.00
             6293.4800000000  1.00000000
 s   1 1.00
              949.0440000000  1.00000000
 s   1 1.00
              218.7760000000  1.00000000
 s   1 1.00
               63.6916000000  1.00000000
 s   1 1.00
               18.8282000000  1.00000000
 s   1 1.00
                2.7202300000  1.00000000
 s   1 1.00
               30.6331000000  1.00000000
 s   1 1.00
                7.0261400000  1.00000000
 s   1 1.00
                2.1120500000  1.00000000
 p   1 1.00
               30.6331000000  1.00000000
 p   1 1.00
                7.0261400000  1.00000000
 p   1 1.00
                2.1120500000  1.00000000
 s   1 1.00
                0.6840090000  1.00000000
 p   1 1.00
                0.6840090000  1.00000000
 s   1 1.00
                0.2008780000  1.00000000
 p   1 1.00
                0.2008780000  1.00000000
 s   1 1.00
                0.0639000000  1.00000000
 p   1 1.00
                0.0639000000  1.00000000
 d   1 1.00
                0.9130000000  1.00000000
  
  4 0
 s   1 1.00
             6293.4800000000  1.00000000
 s   1 1.00
              949.0440000000  1.00000000
 s   1 1.00
              218.7760000000  1.00000000
 s   1 1.00
               63.6916000000  1.00000000
 s   1 1.00
               18.8282000000  1.00000000
 s   1 1.00
                2.7202300000  1.00000000
 s   1 1.00
               30.6331000000  1.00000000
 s   1 1.00
                7.0261400000  1.00000000
 s   1 1.00
                2.1120500000  1.00000000
 p   1 1.00
               30.6331000000  1.00000000
 p   1 1.00
                7.0261400000  1.00000000
 p   1 1.00
                2.1120500000  1.00000000
 s   1 1.00
                0.6840090000  1.00000000
 p   1 1.00
                0.6840090000  1.00000000
 s   1 1.00
                0.2008780000  1.00000000
 p   1 1.00
                0.2008780000  1.00000000
 s   1 1.00
                0.0639000000  1.00000000
 p   1 1.00
                0.0639000000  1.00000000
 d   1 1.00
                0.9130000000  1.00000000
  
  5 0
 s   1 1.00
             6293.4800000000  1.00000000
 s   1 1.00
              949.0440000000  1.00000000
 s   1 1.00
              218.7760000000  1.00000000
 s   1 1.00
               63.6916000000  1.00000000
 s   1 1.00
               18.8282000000  1.00000000
 s   1 1.00
                2.7202300000  1.00000000
 s   1 1.00
               30.6331000000  1.00000000
 s   1 1.00
                7.0261400000  1.00000000
 s   1 1.00
                2.1120500000  1.00000000
 p   1 1.00
               30.6331000000  1.00000000
 p   1 1.00
                7.0261400000  1.00000000
 p   1 1.00
                2.1120500000  1.00000000
 s   1 1.00
                0.6840090000  1.00000000
 p   1 1.00
                0.6840090000  1.00000000
 s   1 1.00
                0.2008780000  1.00000000
 p   1 1.00
                0.2008780000  1.00000000
 s   1 1.00
                0.0639000000  1.00000000
 p   1 1.00
                0.0639000000  1.00000000
 d   1 1.00
                0.9130000000  1.00000000
  
  
[MO]
 Ene=   -16.0553
 Spin= Alpha
 Occup=   2.000000
      1      0.00000000
      2      0.00000000
      3      0.00000000
      4      0.00000000
      5      0.00000000
      6      0.00000000
      7      0.00000000
      8      0.00000000
      9      0.00000000
     10     -0.00000386
     11      0.00000000
     12      0.00000000
     13     -0.00002394
     14      0.00000000
     15      0.00000000
     16     -0.00008244
     17      0.00000000
     18      0.00000000
     19      0.00000000
     20     -0.00007941
     21      0.00000000
     22      0.00000000
     23      0.00000000
     24      0.00038538
     25      0.00000000
     26      0.00000000
     27      0.00000000
     28     -0.00065561
     29      0.00000000
     30      0.00000000
     31      0.00000000
     32      0.00000000
     33      0.00000000
     34      0.00000000
     35      0.00005565
     36      0.00000000
     37     -0.00077617
     38     -0.00589530
     39     -0.02896194
     40     -0.09809034
     41     -0.23739140
     42     -0.10095301
     43     -0.03700510
     44     -0.30477668
     45      0.00084958
     46      0.00000079
     47      0.00000000
     48     -0.00000716
     49      0.00000491
     50      0.00000000
     51     -0.00004438
     52      0.00001693
     53      0.00000000
     54     -0.00015284
     55     -0.00415617
     56     -0.00054732
     57      0.00000000
     58      0.00032744
     59     -0.00038496
     60      0.00074036
     61      0.00000000
     62     -0.00040653
     63      0.00196464
     64     -0.00024359
     65      0.00000000
     66      0.00023047
     67     -0.00005884
     68      0.00070911
     69      0.00046479
     70      0.00000000
     71      0.00038214
     72      0.00000000
     73      0.00077617
     74      0.00589530
     75      0.02896194
     76      0.09809034
     77      0.23739140
     78      0.10095301
     79      0.03700510
     80      0.30477668
     81     -0.00084958
     82      0.00000079
     83      0.00000000
     84      0.00000716
     85      0.00000491
     86      0.00000000
     87      0.00004438
     88      0.00001693
     89      0.00000000
     90      0.00015284
     91      0.00415617
     92     -0.00054732
     93      0.00000000
     94     -0.00032744
     95      0.00038496
     96      0.00074036
     97      0.00000000
     98      0.00040653
     99     -0.00196464
    100     -0.00024359
    101      0.00000000
    102     -0.00023047
    103      0.00005884
    104     -0.00070911
    105     -0.00046479
    106      0.00000000
    107      0.00038214
    108      0.00000000
    109     -0.00002593
    110     -0.00019695
    111     -0.00096756
    112     -0.00327700
    113     -0.00793076
    114     -0.00337263
    115     -0.00122632
    116     -0.01010003
    117      0.00002815
    118      0.00000861
    119      0.00000000
    120     -0.00000384
    121      0.00005335
    122      0.00000000
    123     -0.00002379
    124      0.00018373
    125      0.00000000
    126     -0.00008192
    127     -0.00016354
    128     -0.00009627
    129      0.00000000
    130      0.00002088
    131     -0.00071510
    132      0.00028471
    133      0.00000000
    134     -0.00011294
    135     -0.00058645
    136      0.00014842
    137      0.00000000
    138     -0.00009048
    139      0.00007201
    140      0.00008394
    141      0.00007155
    142      0.00000000
    143      0.00003064
    144      0.00000000
    145      0.00002593
    146      0.00019695
    147      0.00096756
    148      0.00327700
    149      0.00793076
    150      0.00337263
    151      0.00122632
    152      0.01010003
    153     -0.00002815
    154      0.00000861
    155      0.00000000
    156      0.00000384
    157      0.00005335
    158      0.00000000
    159      0.00002379
    160      0.00018373
    161      0.00000000
    162      0.00008192
    163      0.00016354
    164     -0.00009627
    165      0.00000000
    166     -0.00002088
    167      0.00071510
    168      0.00028471
    169      0.00000000
    170      0.00011294
    171      0.00058645
    172      0.00014842
    173      0.00000000
    174      0.00009048
    175     -0.00007201
    176     -0.00008394
    177     -0.00007155
    178      0.00000000
    179      0.00003064
    180      0.00000000
 Ene=   -16.0553
 Spin= Alpha
 Occup=   2.000000
      1     -0.00000629
      2     -0.00004778
      3     -0.00023472
      4     -0.00079498
      5     -0.00192395
      6     -0.00081818
      7     -0.00029412
      8     -0.00242236
      9      0.00000675
     10      0.00000000
     11      0.00000000
     12      0.00000479
     13      0.00000000
     14      0.00000000
     15      0.00002970
     16      0.00000000
     17      0.00000000
     18      0.00010229
     19     -0.00019650
     20      0.00000000
     21      0.00000000
     22      0.00001192
     23      0.00032764
     24      0.00000000
     25      0.00000000
     26     -0.00004135
     27     -0.00120097
     28      0.00000000
     29      0.00000000
     30      0.00013753
     31      0.00000248
     32      0.00004206
     33      0.00006459
     34      0.00000000
     35      0.00000000
     36      0.00000000
     37     -0.00077616
     38     -0.00589521
     39     -0.02896147
     40     -0.09808875
     41     -0.23738756
     42     -0.10095138
     43     -0.03700589
     44     -0.30478322
     45      0.00084960
     46      0.00000019
     47      0.00000000
     48     -0.00000695
     49      0.00000120
     50      0.00000000
     51     -0.00004305
     52      0.00000413
     53      0.00000000
     54     -0.00014826
     55     -0.00418150
     56     -0.00050617
     57      0.00000000
     58      0.00031136
     59     -0.00043792
     60      0.00013136
     61      0.00000000
     62     -0.00014192
     63      0.00126783
     64     -0.00001841
     65      0.00000000
     66      0.00015492
     67     -0.00010597
     68      0.00067179
     69      0.00044302
     70      0.00000000
     71      0.00040663
     72      0.00000000
     73     -0.00077616
     74     -0.00589521
     75     -0.02896147
     76     -0.09808875
     77     -0.23738756
     78     -0.10095138
     79     -0.03700589
     80     -0.30478322
     81      0.00084960
     82     -0.00000019
     83      0.00000000
     84     -0.00000695
     85     -0.00000120
     86      0.00000000
     87     -0.00004305
     88     -0.00000413
     89      0.00000000
     90     -0.00014826
     91     -0.00418150
     92      0.00050617
     93      0.00000000
     94      0.00031136
     95     -0.00043792
     96     -0.00013136
     97      0.00000000
     98     -0.00014192
     99      0.00126783
    100      0.00001841
    101      0.00000000
    102      0.00015492
    103     -0.00010597
    104      0.00067179
    105      0.00044302
    106      0.00000000
    107     -0.00040663
    108      0.00000000
    109     -0.00002593
    110     -0.00019695
    111     -0.00096756
    112     -0.00327699
    113     -0.00793075
    114     -0.00337263
    115     -0.00122635
    116     -0.01010034
    117      0.00002816
    118      0.00000880
    119      0.00000000
    120     -0.00000399
    121      0.00005456
    122      0.00000000
    123     -0.00002475
    124      0.00018789
    125      0.00000000
    126     -0.00008524
    127     -0.00016871
    128     -0.00013340
    129      0.00000000
    130      0.00002519
    131     -0.00008708
    132      0.00008621
    133      0.00000000
    134     -0.00001057
    135     -0.00062587
    136      0.00013641
    137      0.00000000
    138     -0.00012542
    139      0.00008215
    140      0.00008138
    141      0.00006668
    142      0.00000000
    143      0.00002336
    144      0.00000000
    145     -0.00002593
    146     -0.00019695
    147     -0.00096756
    148     -0.00327699
    149     -0.00793075
    150     -0.00337263
    151     -0.00122635
    152     -0.01010034
    153      0.00002816
    154     -0.00000880
    155      0.00000000
    156     -0.00000399
    157     -0.00005456
    158      0.00000000
    159     -0.00002475
    160     -0.00018789
    161      0.00000000
    162     -0.00008524
    163     -0.00016871
    164      0.00013340
    165      0.00000000
    166      0.00002519
    167     -0.00008708
    168     -0.00008621
    169      0.00000000
    170     -0.00001057
    171     -0.00062587
    172     -0.00013641
    173      0.00000000
    174     -0.00012542
    175      0.00008215
    176      0.00008138
    177      0.00006668
    178      0.00000000
    179     -0.00002336
    180      0.00000000
 Ene=   -15.9971
 Spin= Alpha
 Occup=   2.000000
      1      0.00000180
      2      0.00001367
      3      0.00006713
      4      0.00022737
      5      0.00055028
      6      0.00023401
      7      0.00008615
      8      0.00070954
      9     -0.00000198
     10      0.00000000
     11      0.00000000
     12     -0.00000014
     13      0.00000000
     14      0.00000000
     15     -0.00000085
     16      0.00000000
     17      0.00000000
     18     -0.00000294
     19      0.00008144
     20      0.00000000
     21      0.00000000
     22     -0.00007008
     23     -0.00060223
     24      0.00000000
     25      0.00000000
     26      0.00022895
     27      0.00668991
     28      0.00000000
     29      0.00000000
     30     -0.00106386
     31      0.00003498
     32      0.00003573
     33      0.00006401
     34      0.00000000
     35      0.00000000
     36      0.00000000
     37      0.00002638
     38      0.00020040
     39      0.00098452
     40      0.00333443
     41      0.00806975
     42      0.00343174
     43      0.00126909
     44      0.01045229
     45     -0.00002914
     46     -0.00000594
     47      0.00000000
     48      0.00000285
     49     -0.00003681
     50      0.00000000
     51      0.00001769
     52     -0.00012675
     53      0.00000000
     54      0.00006092
     55     -0.00055530
     56     -0.00090519
     57      0.00000000
     58      0.00040242
     59      0.00032935
     60     -0.00015130
     61      0.00000000
     62      0.00009326
     63      0.00542699
     64      0.00373919
     65      0.00000000
     66     -0.00191058
     67     -0.00049746
     68      0.00007746
     69     -0.00004613
     70      0.00000000
     71      0.00028764
     72      0.00000000
     73      0.00002638
     74      0.00020040
     75      0.00098452
     76      0.00333443
     77      0.00806975
     78      0.00343174
     79      0.00126909
     80      0.01045229
     81     -0.00002914
     82      0.00000594
     83      0.00000000
     84      0.00000285
     85      0.00003681
     86      0.00000000
     87      0.00001769
     88      0.00012675
     89      0.00000000
     90      0.00006092
     91     -0.00055530
     92      0.00090519
     93      0.00000000
     94      0.00040242
     95      0.00032935
     96      0.00015130
     97      0.00000000
     98      0.00009326
     99      0.00542699
    100     -0.00373919
    101      0.00000000
    102     -0.00191058
    103     -0.00049746
    104      0.00007746
    105     -0.00004613
    106      0.00000000
    107     -0.00028764
    108      0.00000000
    109     -0.00077652
    110     -0.00589800
    111     -0.02897518
    112     -0.09813517
    113     -0.23749992
    114     -0.10099916
    115     -0.03702798
    116     -0.30496516
    117      0.00085011
    118      0.00007946
    119      0.00000000
    120     -0.00003493
    121      0.00049238
    122      0.00000000
    123     -0.00021646
    124      0.00169570
    125      0.00000000
    126     -0.00074548
    127     -0.00287249
    128     -0.00135802
    129      0.00000000
    130      0.00060863
    131     -0.00016964
    132      0.00055697
    133      0.00000000
    134     -0.00026627
    135     -0.00882944
    136      0.00151543
    137      0.00000000
    138     -0.00062533
    139      0.00037434
    140      0.00035309
    141      0.00042483
    142      0.00000000
    143      0.00005319
    144      0.00000000
    145     -0.00077652
    146     -0.00589800
    147     -0.02897518
    148     -0.09813517
    149     -0.23749992
    150     -0.10099916
    151     -0.03702798
    152     -0.30496516
    153      0.00085011
    154     -0.00007946
    155      0.00000000
    156     -0.00003493
    157     -0.00049238
    158      0.00000000
    159     -0.00021646
    160     -0.00169570
    161      0.00000000
    162     -0.00074548
    163     -0.00287249
    164      0.00135802
    165      0.00000000
    166      0.00060863
    167     -0.00016964
    168     -0.00055697
    169      0.00000000
    170     -0.00026627
    171     -0.00882944
    172     -0.00151543
    173      0.00000000
    174     -0.00062533
    175      0.00037434
    176      0.00035309
    177      0.00042483
    178      0.00000000
    179     -0.00005319
    180      0.00000000
 Ene=   -15.9971
 Spin= Alpha
 Occup=   2.000000
      1      0.00000000
      2      0.00000000
      3      0.00000000
      4      0.00000000
      5      0.00000000
      6      0.00000000
      7      0.00000000
      8      0.00000000
      9      0.00000000
     10      0.00000025
     11      0.00000000
     12      0.00000000
     13      0.00000157
     14      0.00000000
     15      0.00000000
     16      0.00000541
     17      0.00000000
     18      0.00000000
     19      0.00000000
     20      0.00005736
     21      0.00000000
     22      0.00000000
     23      0.00000000
     24     -0.00001388
     25      0.00000000
     26      0.00000000
     27      0.00000000
     28      0.00118840
     29      0.00000000
     30      0.00000000
     31      0.00000000
     32      0.00000000
     33      0.00000000
     34      0.00000000
     35     -0.00007919
     36      0.00000000
     37      0.00002639
     38      0.00020046
     39      0.00098479
     40      0.00333536
     41      0.00807200
     42      0.00343270
     43      0.00126915
     44      0.01045280
     45     -0.00002914
     46     -0.00000611
     47      0.00000000
     48      0.00000307
     49     -0.00003789
     50      0.00000000
     51      0.00001905
     52     -0.00013048
     53      0.00000000
     54      0.00006559
     55     -0.00055684
     56     -0.00087241
     57      0.00000000
     58      0.00037800
     59      0.00030734
     60      0.00004362
     61      0.00000000
     62      0.00001415
     63      0.00992700
     64      0.00727970
     65      0.00000000
     66     -0.00330107
     67     -0.00050206
     68      0.00006267
     69     -0.00005472
     70      0.00000000
     71      0.00030373
     72      0.00000000
     73     -0.00002639
     74     -0.00020046
     75     -0.00098479
     76     -0.00333536
     77     -0.00807200
     78     -0.00343270
     79     -0.00126915
     80     -0.01045280
     81      0.00002914
     82     -0.00000611
     83      0.00000000
     84     -0.00000307
     85     -0.00003789
     86      0.00000000
     87     -0.00001905
     88     -0.00013048
     89      0.00000000
     90     -0.00006559
     91      0.00055684
     92     -0.00087241
     93      0.00000000
     94     -0.00037800
     95     -0.00030734
     96      0.00004362
     97      0.00000000
     98     -0.00001415
     99     -0.00992700
    100      0.00727970
    101      0.00000000
    102      0.00330107
    103      0.00050206
    104     -0.00006267
    105      0.00005472
    106      0.00000000
    107      0.00030373
    108      0.00000000
    109     -0.00077653
    110     -0.00589801
    111     -0.02897523
    112     -0.09813534
    113     -0.23750033
    114     -0.10099933
    115     -0.03702792
    116     -0.30496466
    117      0.00085010
    118      0.00007955
    119      0.00000000
    120     -0.00003487
    121      0.00049292
    122      0.00000000
    123     -0.00021608
    124      0.00169758
    125      0.00000000
    126     -0.00074414
    127     -0.00286596
    128     -0.00136657
    129      0.00000000
    130      0.00059603
    131     -0.00039566
    132      0.00068347
    133      0.00000000
    134     -0.00029068
    135     -0.01620687
    136      0.00277642
    137      0.00000000
    138     -0.00125781
    139      0.00037404
    140      0.00036042
    141      0.00042671
    142      0.00000000
    143      0.00005780
    144      0.00000000
    145      0.00077653
    146      0.00589801
    147      0.02897523
    148      0.09813534
    149      0.23750033
    150      0.10099933
    151      0.03702792
    152      0.30496466
    153     -0.00085010
    154      0.00007955
    155      0.00000000
    156      0.00003487
    157      0.00049292
    158      0.00000000
    159      0.00021608
    160      0.00169758
    161      0.00000000
    162      0.00074414
    163      0.00286596
    164     -0.00136657
    165      0.00000000
    166     -0.00059603
    167      0.00039566
    168      0.00068347
    169      0.00000000
    170      0.00029068
    171      0.01620687
    172      0.00277642
    173      0.00000000
    174      0.00125781
    175     -0.00037404
    176     -0.00036042
    177     -0.00042671
    178      0.00000000
    179      0.00005780
    180      0.00000000
 Ene=   -15.9648
 Spin= Alpha
 Occup=   2.000000
      1     -0.00109885
      2     -0.00834616
      3     -0.04100231
      4     -0.13886952
      5     -0.33608233
      6     -0.14292230
      7     -0.05238452
      8     -0.43144274
      9      0.00120267
     10      0.00000000
     11      0.00000000
     12      0.00015166
     13      0.00000000
     14      0.00000000
     15      0.00093978
     16      0.00000000
     17      0.00000000
     18      0.00323649
     19     -0.00465437
     20      0.00000000
     21      0.00000000
     22     -0.00216971
     23     -0.00035143
     24      0.00000000
     25      0.00000000
     26      0.00111691
     27     -0.01615768
     28      0.00000000
     29      0.00000000
     30      0.00217702
     31      0.00089375
     32      0.00008902
     33      0.00058087
     34      0.00000000
     35      0.00000000
     36      0.00000000
     37      0.00000468
     38      0.00003556
     39      0.00017471
     40      0.00059171
     41      0.00143202
     42      0.00060898
     43      0.00022015
     44      0.00181318
     45     -0.00000505
     46      0.00000113
     47      0.00000000
     48     -0.00000097
     49      0.00000698
     50      0.00000000
     51     -0.00000603
     52      0.00002404
     53      0.00000000
     54     -0.00002077
     55     -0.00018602
     56      0.00021617
     57      0.00000000
     58     -0.00017232
     59      0.00022800
     60     -0.00009378
     61      0.00000000
     62     -0.00002424
     63     -0.00224909
     64     -0.00564925
     65      0.00000000
     66      0.00342642
     67     -0.00070424
     68      0.00002692
     69     -0.00016799
     70      0.00000000
     71      0.00044445
     72      0.00000000
     73      0.00000468
     74      0.00003556
     75      0.00017471
     76      0.00059171
     77      0.00143202
     78      0.00060898
     79      0.00022015
     80      0.00181318
     81     -0.00000505
     82     -0.00000113
     83      0.00000000
     84     -0.00000097
     85     -0.00000698
     86      0.00000000
     87     -0.00000603
     88     -0.00002404
     89      0.00000000
     90     -0.00002077
     91     -0.00018602
     92     -0.00021617
     93      0.00000000
     94     -0.00017232
     95      0.00022800
     96      0.00009378
     97      0.00000000
     98     -0.00002424
     99     -0.00224909
    100      0.00564925
    101      0.00000000
    102      0.00342642
    103     -0.00070424
    104      0.00002692
    105     -0.00016799
    106      0.00000000
    107     -0.00044445
    108      0.00000000
    109     -0.00000114
    110     -0.00000862
    111     -0.00004236
    112     -0.00014345
    113     -0.00034717
    114     -0.00014764
    115     -0.00005497
    116     -0.00045270
    117      0.00000126
    118     -0.00000015
    119      0.00000000
    120     -0.00000006
    121     -0.00000092
    122      0.00000000
    123     -0.00000036
    124     -0.00000318
    125      0.00000000
    126     -0.00000123
    127      0.00022226
    128     -0.00039123
    129      0.00000000
    130      0.00016004
    131     -0.00001087
    132      0.00006034
    133      0.00000000
    134     -0.00000025
    135      0.01023190
    136     -0.00178175
    137      0.00000000
    138      0.00054505
    139      0.00023791
    140     -0.00002028
    141      0.00002043
    142      0.00000000
    143     -0.00013353
    144      0.00000000
    145     -0.00000114
    146     -0.00000862
    147     -0.00004236
    148     -0.00014345
    149     -0.00034717
    150     -0.00014764
    151     -0.00005497
    152     -0.00045270
    153      0.00000126
    154      0.00000015
    155      0.00000000
    156     -0.00000006
    157      0.00000092
    158      0.00000000
    159     -0.00000036
    160      0.00000318
    161      0.00000000
    162     -0.00000123
    163      0.00022226
    164      0.00039123
    165      0.00000000
    166      0.00016004
    167     -0.00001087
    168     -0.00006034
    169      0.00000000
    170     -0.00000025
    171      0.01023190
    172      0.00178175
    173      0.00000000
    174      0.00054505
    175      0.00023791
    176     -0.00002028
    177      0.00002043
    178      0.00000000
    179      0.00013353
    180      0.00000000
 Ene=    -1.8511
 Spin= Alpha
 Occup=   2.000000
      1      0.00007638
      2      0.00058011
      3      0.00284989
      4      0.00965221
      5      0.02335961
      6      0.00993390
      7      0.00711165
      8      0.05857209
      9     -0.00016327
     10      0.00000000
     11      0.00000000
     12      0.00104885
     13      0.00000000
     14      0.00000000
     15      0.00649929
     16      0.00000000
     17      0.00000000
     18      0.02238290
     19     -0.17247027
     20      0.00000000
     21      0.00000000
     22      0.04482145
     23     -0.09182807
     24      0.00000000
     25      0.00000000
     26      0.01916305
     27     -0.02390196
     28      0.00000000
     29      0.00000000
     30     -0.01051256
     31     -0.00403893
     32      0.00683891
     33     -0.00314053
     34      0.00000000
     35      0.00000000
     36      0.00000000
     37      0.00013997
     38      0.00106313
     39      0.00522284
     40      0.01768909
     41      0.04280990
     42      0.01820533
     43      0.01294181
     44      0.10658966
     45     -0.00029712
     46     -0.00135092
     47      0.00000000
     48      0.00055182
     49     -0.00837110
     50      0.00000000
     51      0.00341937
     52     -0.02882922
     53      0.00000000
     54      0.01177597
     55     -0.31832395
     56     -0.04043456
     57      0.00000000
     58      0.01524022
     59     -0.13048732
     60     -0.00603986
     61      0.00000000
     62      0.00464733
     63      0.01012475
     64     -0.00783658
     65      0.00000000
     66      0.01275539
     67     -0.02483774
     68      0.01046895
     69      0.00069524
     70      0.00000000
     71      0.01875195
     72      0.00000000
     73      0.00013997
     74      0.00106313
     75      0.00522284
     76      0.01768909
     77      0.04280990
     78      0.01820533
     79      0.01294181
     80      0.10658966
     81     -0.00029712
     82      0.00135092
     83      0.00000000
     84      0.00055182
     85      0.00837110
     86      0.00000000
     87      0.00341937
     88      0.02882922
     89      0.00000000
     90      0.01177597
     91     -0.31832395
     92      0.04043456
     93      0.00000000
     94      0.01524022
     95     -0.13048732
     96      0.00603986
     97      0.00000000
     98      0.00464733
     99      0.01012475
    100      0.00783658
    101      0.00000000
    102      0.01275539
    103     -0.02483774
    104      0.01046895
    105      0.00069524
    106      0.00000000
    107     -0.01875195
    108      0.00000000
    109      0.00009885
    110      0.00075079
    111      0.00368844
    112      0.01249227
    113      0.03023292