    molecula                                                                    
GAUSSIAN             17 MOL ORBITALS    180 PRIMITIVES        5 NUCLEI
  N    1    (CENTRE  1)   0.00000000  0.00000000 -0.65253239  CHARGE =  7.0
  N    2    (CENTRE  2)   2.02260219  0.00000000 -2.12412132  CHARGE =  7.0
  N    3    (CENTRE  3)  -2.02260219  0.00000000 -2.12412132  CHARGE =  7.0
  N    4    (CENTRE  4)   3.86962309  0.00000000 -2.95948317  CHARGE =  7.0
  N    5    (CENTRE  5)  -3.86962309  0.00000000 -2.95948317  CHARGE =  7.0
CENTRE ASSIGNMENTS    1  1  1  1  1  1  1  1  1  1  1  1  1  1  1  1  1  1  1  1
CENTRE ASSIGNMENTS    1  1  1  1  1  1  1  1  1  1  1  1  1  1  1  1  2  2  2  2
CENTRE ASSIGNMENTS    2  2  2  2  2  2  2  2  2  2  2  2  2  2  2  2  2  2  2  2
CENTRE ASSIGNMENTS    2  2  2  2  2  2  2  2  2  2  2  2  3  3  3  3  3  3  3  3
CENTRE ASSIGNMENTS    3  3  3  3  3  3  3  3  3  3  3  3  3  3  3  3  3  3  3  3
CENTRE ASSIGNMENTS    3  3  3  3  3  3  3  3  4  4  4  4  4  4  4  4  4  4  4  4
CENTRE ASSIGNMENTS    4  4  4  4  4  4  4  4  4  4  4  4  4  4  4  4  4  4  4  4
CENTRE ASSIGNMENTS    4  4  4  4  5  5  5  5  5  5  5  5  5  5  5  5  5  5  5  5
CENTRE ASSIGNMENTS    5  5  5  5  5  5  5  5  5  5  5  5  5  5  5  5  5  5  5  5
TYPE ASSIGNMENTS      1  1  1  1  1  1  1  1  1  2  2  2  3  3  3  4  4  4  1  2
TYPE ASSIGNMENTS      3  4  1  2  3  4  1  2  3  4  5  6  7  8  9 10  1  1  1  1
TYPE ASSIGNMENTS      1  1  1  1  1  2  2  2  3  3  3  4  4  4  1  2  3  4  1  2
TYPE ASSIGNMENTS      3  4  1  2  3  4  5  6  7  8  9 10  1  1  1  1  1  1  1  1
TYPE ASSIGNMENTS      1  2  2  2  3  3  3  4  4  4  1  2  3  4  1  2  3  4  1  2
TYPE ASSIGNMENTS      3  4  5  6  7  8  9 10  1  1  1  1  1  1  1  1  1  2  2  2
TYPE ASSIGNMENTS      3  3  3  4  4  4  1  2  3  4  1  2  3  4  1  2  3  4  5  6
TYPE ASSIGNMENTS      7  8  9 10  1  1  1  1  1  1  1  1  1  2  2  2  3  3  3  4
TYPE ASSIGNMENTS      4  4  1  2  3  4  1  2  3  4  1  2  3  4  5  6  7  8  9 10
EXPONENTS  6.2934800E+03 9.4904400E+02 2.1877600E+02 6.3691600E+01 1.8828200E+01
EXPONENTS  2.7202300E+00 3.0633100E+01 7.0261400E+00 2.1120500E+00 3.0633100E+01
EXPONENTS  7.0261400E+00 2.1120500E+00 3.0633100E+01 7.0261400E+00 2.1120500E+00
EXPONENTS  3.0633100E+01 7.0261400E+00 2.1120500E+00 6.8400900E-01 6.8400900E-01
EXPONENTS  6.8400900E-01 6.8400900E-01 2.0087800E-01 2.0087800E-01 2.0087800E-01
EXPONENTS  2.0087800E-01 6.3900000E-02 6.3900000E-02 6.3900000E-02 6.3900000E-02
EXPONENTS  9.1300000E-01 9.1300000E-01 9.1300000E-01 9.1300000E-01 9.1300000E-01
EXPONENTS  9.1300000E-01 6.2934800E+03 9.4904400E+02 2.1877600E+02 6.3691600E+01
EXPONENTS  1.8828200E+01 2.7202300E+00 3.0633100E+01 7.0261400E+00 2.1120500E+00
EXPONENTS  3.0633100E+01 7.0261400E+00 2.1120500E+00 3.0633100E+01 7.0261400E+00
EXPONENTS  2.1120500E+00 3.0633100E+01 7.0261400E+00 2.1120500E+00 6.8400900E-01
EXPONENTS  6.8400900E-01 6.8400900E-01 6.8400900E-01 2.0087800E-01 2.0087800E-01
EXPONENTS  2.0087800E-01 2.0087800E-01 6.3900000E-02 6.3900000E-02 6.3900000E-02
EXPONENTS  6.3900000E-02 9.1300000E-01 9.1300000E-01 9.1300000E-01 9.1300000E-01
EXPONENTS  9.1300000E-01 9.1300000E-01 6.2934800E+03 9.4904400E+02 2.1877600E+02
EXPONENTS  6.3691600E+01 1.8828200E+01 2.7202300E+00 3.0633100E+01 7.0261400E+00
EXPONENTS  2.1120500E+00 3.0633100E+01 7.0261400E+00 2.1120500E+00 3.0633100E+01
EXPONENTS  7.0261400E+00 2.1120500E+00 3.0633100E+01 7.0261400E+00 2.1120500E+00
EXPONENTS  6.8400900E-01 6.8400900E-01 6.8400900E-01 6.8400900E-01 2.0087800E-01
EXPONENTS  2.0087800E-01 2.0087800E-01 2.0087800E-01 6.3900000E-02 6.3900000E-02
EXPONENTS  6.3900000E-02 6.3900000E-02 9.1300000E-01 9.1300000E-01 9.1300000E-01
EXPONENTS  9.1300000E-01 9.1300000E-01 9.1300000E-01 6.2934800E+03 9.4904400E+02
EXPONENTS  2.1877600E+02 6.3691600E+01 1.8828200E+01 2.7202300E+00 3.0633100E+01
EXPONENTS  7.0261400E+00 2.1120500E+00 3.0633100E+01 7.0261400E+00 2.1120500E+00
EXPONENTS  3.0633100E+01 7.0261400E+00 2.1120500E+00 3.0633100E+01 7.0261400E+00
EXPONENTS  2.1120500E+00 6.8400900E-01 6.8400900E-01 6.8400900E-01 6.8400900E-01
EXPONENTS  2.0087800E-01 2.0087800E-01 2.0087800E-01 2.0087800E-01 6.3900000E-02
EXPONENTS  6.3900000E-02 6.3900000E-02 6.3900000E-02 9.1300000E-01 9.1300000E-01
EXPONENTS  9.1300000E-01 9.1300000E-01 9.1300000E-01 9.1300000E-01 6.2934800E+03
EXPONENTS  9.4904400E+02 2.1877600E+02 6.3691600E+01 1.8828200E+01 2.7202300E+00
EXPONENTS  3.0633100E+01 7.0261400E+00 2.1120500E+00 3.0633100E+01 7.0261400E+00
EXPONENTS  2.1120500E+00 3.0633100E+01 7.0261400E+00 2.1120500E+00 3.0633100E+01
EXPONENTS  7.0261400E+00 2.1120500E+00 6.8400900E-01 6.8400900E-01 6.8400900E-01
EXPONENTS  6.8400900E-01 2.0087800E-01 2.0087800E-01 2.0087800E-01 2.0087800E-01
EXPONENTS  6.3900000E-02 6.3900000E-02 6.3900000E-02 6.3900000E-02 9.1300000E-01
EXPONENTS  9.1300000E-01 9.1300000E-01 9.1300000E-01 9.1300000E-01 9.1300000E-01
MO  1                     OCC NO =    2.0000000  ORB. ENERGY = -16.0553391
  0.00000000E+00  0.00000000E+00  0.00000000E+00  0.00000000E+00  0.00000000E+00
  0.00000000E+00  0.00000000E+00  0.00000000E+00  0.00000000E+00 -3.96822391E-04
 -3.90306690E-04 -2.99185589E-04  0.00000000E+00  0.00000000E+00  0.00000000E+00
  0.00000000E+00  0.00000000E+00  0.00000000E+00  0.00000000E+00 -7.04074889E-05
  0.00000000E+00  0.00000000E+00  0.00000000E+00  7.38754086E-05  0.00000000E+00
  0.00000000E+00  0.00000000E+00 -3.00233165E-05  0.00000000E+00  0.00000000E+00
  0.00000000E+00  0.00000000E+00  0.00000000E+00  0.00000000E+00  1.35294946E-04
  0.00000000E+00 -3.90872332E-01 -7.18424198E-01 -1.17418763E+00 -1.57615139E+00
 -1.52926123E+00 -1.52399518E-01 -3.43411507E-01 -9.37409662E-01  1.06082227E-03
  8.14755305E-05  8.01377274E-05  6.14287529E-05  0.00000000E+00  0.00000000E+00
  0.00000000E+00 -7.35732467E-04 -7.23651966E-04 -5.54707991E-04 -2.22792094E-03
 -4.85300972E-04  0.00000000E+00  2.90337388E-04 -8.23232973E-05  1.41922486E-04
  0.00000000E+00 -7.79286428E-05  1.77958925E-04 -1.11551859E-05  0.00000000E+00
  1.05543377E-05 -8.25877208E-05  9.95290367E-04  6.52371151E-04  0.00000000E+00
  9.29005358E-04  0.00000000E+00  3.90872332E-01  7.18424198E-01  1.17418763E+00
  1.57615139E+00  1.52926123E+00  1.52399518E-01  3.43411507E-01  9.37409662E-01
 -1.06082227E-03  8.14755305E-05  8.01377274E-05  6.14287529E-05  0.00000000E+00
  0.00000000E+00  0.00000000E+00  7.35732467E-04  7.23651966E-04  5.54707991E-04
  2.22792094E-03 -4.85300972E-04  0.00000000E+00 -2.90337388E-04  8.23232973E-05
  1.41922486E-04  0.00000000E+00  7.79286428E-05 -1.77958925E-04 -1.11551859E-05
  0.00000000E+00 -1.05543377E-05  8.25877208E-05 -9.95290367E-04 -6.52371151E-04
  0.00000000E+00  9.29005358E-04  0.00000000E+00 -1.30582373E-02 -2.40010685E-02
 -3.92271835E-02 -5.26559625E-02 -5.10894591E-02 -5.09135313E-03 -1.13803552E-02
 -3.10649315E-02  3.51547168E-05  8.84426713E-04  8.69904699E-04  6.66816523E-04
  0.00000000E+00  0.00000000E+00  0.00000000E+00 -3.94324201E-04 -3.87849519E-04
 -2.97302070E-04 -8.76638243E-05 -8.53638846E-05  0.00000000E+00  1.85111019E-05
 -1.52924205E-04  5.45766814E-05  0.00000000E+00 -2.16489764E-05 -5.31206098E-05
  6.79673453E-06  0.00000000E+00 -4.14334137E-06  1.01064044E-04  1.17815525E-04
  1.00420775E-04  0.00000000E+00  7.44966795E-05  0.00000000E+00  1.30582373E-02
  2.40010685E-02  3.92271835E-02  5.26559625E-02  5.10894591E-02  5.09135313E-03
  1.13803552E-02  3.10649315E-02 -3.51547168E-05  8.84426713E-04  8.69904699E-04
  6.66816523E-04  0.00000000E+00  0.00000000E+00  0.00000000E+00  3.94324201E-04
  3.87849519E-04  2.97302070E-04  8.76638243E-05 -8.53638846E-05  0.00000000E+00
 -1.85111019E-05  1.52924205E-04  5.45766814E-05  0.00000000E+00  2.16489764E-05
  5.31206098E-05  6.79673453E-06  0.00000000E+00  4.14334137E-06 -1.01064044E-04
 -1.17815525E-04 -1.00420775E-04  0.00000000E+00  7.44966795E-05  0.00000000E+00
MO  2                     OCC NO =    2.0000000  ORB. ENERGY = -16.0553276
 -3.16784618E-03 -5.82250818E-03 -9.51626786E-03 -1.27740051E-02 -1.23939813E-02
 -1.23513023E-03 -2.72943236E-03 -7.45052572E-03  8.43140831E-06  0.00000000E+00
  0.00000000E+00  0.00000000E+00  0.00000000E+00  0.00000000E+00  0.00000000E+00
  4.92404842E-04  4.84319706E-04  3.71250302E-04 -1.05333987E-04  0.00000000E+00
  0.00000000E+00  1.05678395E-05  7.00663027E-05  0.00000000E+00  0.00000000E+00
 -7.92614717E-06 -1.08784913E-04  0.00000000E+00  0.00000000E+00  6.29835498E-06
  3.48049487E-06  5.90352161E-05  9.06553421E-05  0.00000000E+00  0.00000000E+00
  0.00000000E+00 -3.90866014E-01 -7.18412586E-01 -1.17416865E+00 -1.57612592E+00
 -1.52923651E+00 -1.52397055E-01 -3.43418872E-01 -9.37429766E-01  1.06084502E-03
  1.98746541E-05  1.95483184E-05  1.49845629E-05  0.00000000E+00  0.00000000E+00
  0.00000000E+00 -7.13663473E-04 -7.01945339E-04 -5.38068999E-04 -2.24150100E-03
 -4.48814147E-04  0.00000000E+00  2.76073519E-04 -9.36490080E-05  2.51800461E-05
  0.00000000E+00 -2.72056511E-05  1.14840681E-04 -8.43114764E-07  0.00000000E+00
  7.09442631E-06 -1.48742533E-04  9.42895922E-04  6.21815183E-04  0.00000000E+00
  9.88548945E-04  0.00000000E+00 -3.90866014E-01 -7.18412586E-01 -1.17416865E+00
 -1.57612592E+00 -1.52923651E+00 -1.52397055E-01 -3.43418872E-01 -9.37429766E-01
  1.06084502E-03 -1.98746541E-05 -1.95483184E-05 -1.49845629E-05  0.00000000E+00
  0.00000000E+00  0.00000000E+00 -7.13663473E-04 -7.01945339E-04 -5.38068999E-04
 -2.24150100E-03  4.48814147E-04  0.00000000E+00  2.76073519E-04 -9.36490080E-05
 -2.51800461E-05  0.00000000E+00 -2.72056511E-05  1.14840681E-04  8.43114764E-07
  0.00000000E+00  7.09442631E-06 -1.48742533E-04  9.42895922E-04  6.21815183E-04
  0.00000000E+00 -9.88548945E-04  0.00000000E+00 -1.30582326E-02 -2.40010600E-02
 -3.92271696E-02 -5.26559437E-02 -5.10894409E-02 -5.09135131E-03 -1.13807079E-02
 -3.10658943E-02  3.51558064E-05  9.04422176E-04  8.89571842E-04  6.81892170E-04
  0.00000000E+00  0.00000000E+00  0.00000000E+00 -4.10300104E-04 -4.03563103E-04
 -3.09347157E-04 -9.04385988E-05 -1.18284077E-04  0.00000000E+00  2.23380551E-05
 -1.86222662E-05  1.65267695E-05  0.00000000E+00 -2.02593327E-06 -5.66914599E-05
  6.24700016E-06  0.00000000E+00 -5.74346466E-06  1.15302093E-04  1.14224390E-04
  9.35855250E-05  0.00000000E+00  5.67896676E-05  0.00000000E+00 -1.30582326E-02
 -2.40010600E-02 -3.92271696E-02 -5.26559437E-02 -5.10894409E-02 -5.09135131E-03
 -1.13807079E-02 -3.10658943E-02  3.51558064E-05 -9.04422176E-04 -8.89571842E-04
 -6.81892170E-04  0.00000000E+00  0.00000000E+00  0.00000000E+00 -4.10300104E-04
 -4.03563103E-04 -3.09347157E-04 -9.04385988E-05  1.18284077E-04  0.00000000E+00
  2.23380551E-05 -1.86222662E-05 -1.65267695E-05  0.00000000E+00 -2.02593327E-06
 -5.66914599E-05 -6.24700016E-06  0.00000000E+00 -5.74346466E-06  1.15302093E-04
  1.14224390E-04  9.35855250E-05  0.00000000E+00 -5.67896676E-05  0.00000000E+00
MO  3                     OCC NO =    2.0000000  ORB. ENERGY = -15.9970574
  9.06046110E-04  1.66531472E-03  2.72177908E-03  3.65353524E-03  3.54484336E-03
  3.53263660E-04  7.99482695E-04  2.18234622E-03 -2.46965821E-06  0.00000000E+00
  0.00000000E+00  0.00000000E+00  0.00000000E+00  0.00000000E+00  0.00000000E+00
 -1.41668343E-05 -1.39342192E-05 -1.06811328E-05  4.36571978E-05  0.00000000E+00
  0.00000000E+00 -6.21368669E-05 -1.28787495E-04  0.00000000E+00  0.00000000E+00
  4.38873333E-05  6.05976633E-04  0.00000000E+00  0.00000000E+00 -4.87194739E-05
  4.90963262E-05  5.01461864E-05  8.98487959E-05  0.00000000E+00  0.00000000E+00
  0.00000000E+00  1.32870980E-02  2.44217151E-02  3.99146855E-02  5.35788193E-02
  5.19848611E-02  5.18058500E-03  1.17772658E-02  3.21483776E-02 -3.63808016E-05
 -6.10154972E-04 -6.00136415E-04 -4.60028412E-04  0.00000000E+00  0.00000000E+00
  0.00000000E+00  2.93233841E-04  2.88419032E-04  2.21084650E-04 -2.97666948E-04
 -8.02614609E-04  0.00000000E+00  3.56814547E-04  7.04310553E-05 -2.90023314E-05
  0.00000000E+00  1.78772398E-05  4.91580848E-04  1.71235437E-04  0.00000000E+00
 -8.74947783E-05 -6.98212239E-04  1.08717100E-04 -6.47496610E-05  0.00000000E+00
  6.99265526E-04  0.00000000E+00  1.32870980E-02  2.44217151E-02  3.99146855E-02
  5.35788193E-02  5.19848611E-02  5.18058500E-03  1.17772658E-02  3.21483776E-02
 -3.63808016E-05  6.10154972E-04  6.00136415E-04  4.60028412E-04  0.00000000E+00
  0.00000000E+00  0.00000000E+00  2.93233841E-04  2.88419032E-04  2.21084650E-04
 -2.97666948E-04  8.02614609E-04  0.00000000E+00  3.56814547E-04  7.04310553E-05
  2.90023314E-05  0.00000000E+00  1.78772398E-05  4.91580848E-04 -1.71235437E-04
  0.00000000E+00 -8.74947783E-05 -6.98212239E-04  1.08717100E-04 -6.47496610E-05
  0.00000000E+00 -6.99265526E-04  0.00000000E+00 -3.91051002E-01 -7.18752594E-01
 -1.17472436E+00 -1.57687186E+00 -1.52996027E+00 -1.52469181E-01 -3.43623876E-01
 -9.37989365E-01  1.06147829E-03  8.16254951E-03  8.02852296E-03  6.15418191E-03
  0.00000000E+00  0.00000000E+00  0.00000000E+00 -3.58848684E-03 -3.52956499E-03
 -2.70555183E-03 -1.53980381E-03 -1.20413303E-03  0.00000000E+00  5.39661214E-04
 -3.62770889E-05  1.06766613E-04  0.00000000E+00 -5.10418800E-05 -7.99777089E-04
  6.93987277E-05  0.00000000E+00 -2.86369108E-05  5.25409761E-04  4.95588499E-04
  5.96283767E-04  0.00000000E+00  1.29295704E-04  0.00000000E+00 -3.91051002E-01
 -7.18752594E-01 -1.17472436E+00 -1.57687186E+00 -1.52996027E+00 -1.52469181E-01
 -3.43623876E-01 -9.37989365E-01  1.06147829E-03 -8.16254951E-03 -8.02852296E-03
 -6.15418191E-03  0.00000000E+00  0.00000000E+00  0.00000000E+00 -3.58848684E-03
 -3.52956499E-03 -2.70555183E-03 -1.53980381E-03  1.20413303E-03  0.00000000E+00
  5.39661214E-04 -3.62770889E-05 -1.06766613E-04  0.00000000E+00 -5.10418800E-05
 -7.99777089E-04 -6.93987277E-05  0.00000000E+00 -2.86369108E-05  5.25409761E-04
  4.95588499E-04  5.96283767E-04  0.00000000E+00 -1.29295704E-04  0.00000000E+00
MO  4                     OCC NO =    2.0000000  ORB. ENERGY = -15.9970558
  0.00000000E+00  0.00000000E+00  0.00000000E+00  0.00000000E+00  0.00000000E+00
  0.00000000E+00  0.00000000E+00  0.00000000E+00  0.00000000E+00  2.60191115E-05
  2.55918857E-05  1.96171975E-05  0.00000000E+00  0.00000000E+00  0.00000000E+00
  0.00000000E+00  0.00000000E+00  0.00000000E+00  0.00000000E+00  5.08562406E-05
  0.00000000E+00  0.00000000E+00  0.00000000E+00 -2.66089981E-06  0.00000000E+00
  0.00000000E+00  0.00000000E+00  5.44225198E-05  0.00000000E+00  0.00000000E+00
  0.00000000E+00  0.00000000E+00  0.00000000E+00  0.00000000E+00 -1.92511396E-04
  0.00000000E+00  1.32908000E-02  2.44285193E-02  3.99258062E-02  5.35937471E-02
  5.19993448E-02  5.18202838E-03  1.17778428E-02  3.21499525E-02 -3.63825839E-05
 -6.28100414E-04 -6.17787199E-04 -4.73558440E-04  0.00000000E+00  0.00000000E+00
  0.00000000E+00  3.15743906E-04  3.10559488E-04  2.38056190E-04 -2.98495171E-04
 -7.73550844E-04  0.00000000E+00  3.35167283E-04  6.57249201E-05  8.36164666E-06
  0.00000000E+00  2.71326049E-06  8.99194345E-04  3.33372234E-04  0.00000000E+00
 -1.51171704E-04 -7.04677598E-04  8.79590672E-05 -7.67980359E-05  0.00000000E+00
  7.38380312E-04  0.00000000E+00 -1.32908000E-02 -2.44285193E-02 -3.99258062E-02
 -5.35937471E-02 -5.19993448E-02 -5.18202838E-03 -1.17778428E-02 -3.21499525E-02
  3.63825839E-05 -6.28100414E-04 -6.17787199E-04 -4.73558440E-04  0.00000000E+00
  0.00000000E+00  0.00000000E+00 -3.15743906E-04 -3.10559488E-04 -2.38056190E-04
  2.98495171E-04 -7.73550844E-04  0.00000000E+00 -3.35167283E-04 -6.57249201E-05
  8.36164666E-06  0.00000000E+00 -2.71326049E-06 -8.99194345E-04  3.33372234E-04
  0.00000000E+00  1.51171704E-04  7.04677598E-04 -8.79590672E-05  7.67980359E-05
  0.00000000E+00  7.38380312E-04  0.00000000E+00 -3.91051680E-01 -7.18753840E-01
 -1.17472640E+00 -1.57687459E+00 -1.52996292E+00 -1.52469445E-01 -3.43623311E-01
 -9.37987824E-01  1.06147655E-03  8.17159050E-03  8.03741550E-03  6.16099840E-03
  0.00000000E+00  0.00000000E+00  0.00000000E+00 -3.58205670E-03 -3.52324043E-03
 -2.70070381E-03 -1.53630019E-03 -1.21170850E-03  0.00000000E+00  5.28486650E-04
 -8.46115769E-05  1.31015472E-04  0.00000000E+00 -5.57202852E-05 -1.46803025E-03
  1.27145772E-04  0.00000000E+00 -5.76011291E-05  5.24995510E-04  5.05873337E-04
  5.98911003E-04  0.00000000E+00  1.40524698E-04  0.00000000E+00  3.91051680E-01
  7.18753840E-01  1.17472640E+00  1.57687459E+00  1.52996292E+00  1.52469445E-01
  3.43623311E-01  9.37987824E-01 -1.06147655E-03  8.17159050E-03  8.03741550E-03
  6.16099840E-03  0.00000000E+00  0.00000000E+00  0.00000000E+00  3.58205670E-03
  3.52324043E-03  2.70070381E-03  1.53630019E-03 -1.21170850E-03  0.00000000E+00
 -5.28486650E-04  8.46115769E-05  1.31015472E-04  0.00000000E+00  5.57202852E-05
  1.46803025E-03  1.27145772E-04  0.00000000E+00  5.76011291E-05 -5.24995510E-04
 -5.05873337E-04 -5.98911003E-04  0.00000000E+00  1.40524698E-04  0.00000000E+00
MO  5                     OCC NO =    2.0000000  ORB. ENERGY = -15.9647670
 -5.53370026E-01 -1.01709531E+00 -1.66233368E+00 -2.23140618E+00 -2.16502233E+00
 -2.15756703E-01 -4.86134317E-01 -1.32699981E+00  1.50170306E-03  0.00000000E+00
  0.00000000E+00  0.00000000E+00  0.00000000E+00  0.00000000E+00  0.00000000E+00
  1.55794012E-02  1.53235922E-02  1.17461424E-02 -2.49497984E-03  0.00000000E+00
  0.00000000E+00 -1.92384125E-03 -7.51538781E-05  0.00000000E+00  0.00000000E+00
  2.14102559E-04 -1.46357432E-03  0.00000000E+00  0.00000000E+00  9.96962518E-05
  1.25444262E-03  1.24947815E-04  8.15294953E-04  0.00000000E+00  0.00000000E+00
  0.00000000E+00  2.35786019E-03  4.33375217E-03  7.08305513E-03  9.50782217E-03
  9.22496654E-03  9.19320014E-04  2.04302718E-03  5.57684697E-03 -6.31105450E-06
  1.15722643E-04  1.13822512E-04  8.72494792E-05  0.00000000E+00  0.00000000E+00
  0.00000000E+00 -9.99668197E-05 -9.83253953E-05 -7.53703231E-05 -9.97187386E-05
  1.91671636E-04  0.00000000E+00 -1.52795192E-04  4.87577893E-05 -1.79770948E-05
  0.00000000E+00 -4.64682546E-06 -2.03724020E-04 -2.58706257E-04  0.00000000E+00
  1.56912290E-04 -9.88447296E-04  3.77860692E-05 -2.35789726E-04  0.00000000E+00
  1.08047053E-03  0.00000000E+00  2.35786019E-03  4.33375217E-03  7.08305513E-03
  9.50782217E-03  9.22496654E-03  9.19320014E-04  2.04302718E-03  5.57684697E-03
 -6.31105450E-06 -1.15722643E-04 -1.13822512E-04 -8.72494792E-05  0.00000000E+00
  0.00000000E+00  0.00000000E+00 -9.99668197E-05 -9.83253953E-05 -7.53703231E-05
 -9.97187386E-05 -1.91671636E-04  0.00000000E+00 -1.52795192E-04  4.87577893E-05
  1.79770948E-05  0.00000000E+00 -4.64682546E-06 -2.03724020E-04  2.58706257E-04
  0.00000000E+00  1.56912290E-04 -9.88447296E-04  3.77860692E-05 -2.35789726E-04
  0.00000000E+00 -1.08047053E-03  0.00000000E+00 -5.71634061E-04 -1.05066465E-03
 -1.71719917E-03 -2.30505397E-03 -2.23647912E-03 -2.22877775E-04 -5.10087819E-04
 -1.39238564E-03  1.57569711E-06 -1.53106318E-05 -1.50592359E-05 -1.15435028E-05
  0.00000000E+00  0.00000000E+00  0.00000000E+00 -5.91394322E-06 -5.81683810E-06
 -4.45883757E-06  1.19141331E-04 -3.46896003E-04  0.00000000E+00  1.41907442E-04
 -2.32516478E-06  1.15669216E-05  0.00000000E+00 -4.88158097E-08  9.26812431E-04
 -8.15946816E-05  0.00000000E+00  2.49605263E-05  3.33918669E-04 -2.84642059E-05
  2.86783820E-05  0.00000000E+00 -3.24620836E-04  0.00000000E+00 -5.71634061E-04
 -1.05066465E-03 -1.71719917E-03 -2.30505397E-03 -2.23647912E-03 -2.22877775E-04
 -5.10087819E-04 -1.39238564E-03  1.57569711E-06  1.53106318E-05  1.50592359E-05
  1.15435028E-05  0.00000000E+00  0.00000000E+00  0.00000000E+00 -5.91394322E-06
 -5.81683810E-06 -4.45883757E-06  1.19141331E-04  3.46896003E-04  0.00000000E+00
  1.41907442E-04 -2.32516478E-06 -1.15669216E-05  0.00000000E+00 -4.88158097E-08
  9.26812431E-04  8.15946816E-05  0.00000000E+00  2.49605263E-05  3.33918669E-04
 -2.84642059E-05  2.86783820E-05  0.00000000E+00  3.24620836E-04  0.00000000E+00
MO  6                     OCC NO =    2.0000000  ORB. ENERGY =  -1.8511340
  3.84623284E-02  7.06938434E-02  1.15541538E-01  1.55095277E-01  1.50481226E-01
  1.49963040E-02  6.59969430E-02  1.80151715E-01 -2.03869193E-04  0.00000000E+00
  0.00000000E+00  0.00000000E+00  0.00000000E+00  0.00000000E+00  0.00000000E+00
  1.07743754E-01  1.05974635E-01  8.12337694E-02 -9.24529315E-02  0.00000000E+00
  0.00000000E+00  3.97423259E-02 -1.96374390E-02  0.00000000E+00  0.00000000E+00
  3.67341752E-03 -2.16505647E-03  0.00000000E+00  0.00000000E+00 -4.81420746E-04
 -5.66891409E-03  9.59886659E-03 -4.40794475E-03  0.00000000E+00  0.00000000E+00
  0.00000000E+00  7.04878311E-02  1.29556787E-01  2.11746734E-01  2.84234733E-01
  2.75778812E-01  2.74829161E-02  1.20101427E-01  3.27840611E-01 -3.71001746E-04
 -1.38774207E-01 -1.36495578E-01 -1.04629285E-01  0.00000000E+00  0.00000000E+00
  0.00000000E+00  5.66855813E-02  5.57548215E-02  4.27382865E-02 -1.70638006E-01
 -3.58525536E-02  0.00000000E+00  1.35132091E-02 -2.79047213E-02 -1.15779628E-03
  0.00000000E+00  8.90858537E-04  9.17106891E-04 -3.58874509E-04  0.00000000E+00
  5.84130432E-04 -3.48614509E-02  1.46938737E-02  9.75815458E-04  0.00000000E+00
  4.55869391E-02  0.00000000E+00  7.04878311E-02  1.29556787E-01  2.11746734E-01
  2.84234733E-01  2.75778812E-01  2.74829161E-02  1.20101427E-01  3.27840611E-01
 -3.71001746E-04  1.38774207E-01  1.36495578E-01  1.04629285E-01  0.00000000E+00
  0.00000000E+00  0.00000000E+00  5.66855813E-02  5.57548215E-02  4.27382865E-02
 -1.70638006E-01  3.58525536E-02  0.00000000E+00  1.35132091E-02 -2.79047213E-02
  1.15779628E-03  0.00000000E+00  8.90858537E-04  9.17106891E-04  3.58874509E-04
  0.00000000E+00  5.84130432E-04 -3.48614509E-02  1.46938737E-02  9.75815458E-04
  0.00000000E+00 -4.55869391E-02  0.00000000E+00  4.97794393E-02  9.14947178E-02
  1.49538346E-01  2.00730331E-01  1.94758647E-01  1.94087991E-02  8.50108317E-02
  2.32053887E-01 -2.62604432E-04  2.28367948E-01  2.24618217E-01  1.72178790E-01
  0.00000000E+00  0.00000000E+00  0.00000000E+00 -1.05203399E-01 -1.03475992E-01
 -7.93184602E-02 -1.16059141E-01  6.63863196E-02  0.00000000E+00 -3.08959145E-02
 -1.77691971E-02  2.92940516E-03  0.00000000E+00 -1.44972939E-03  1.79127775E-03
 -2.99408538E-04  0.00000000E+00  1.04495804E-05 -1.55448456E-02  1.22014136E-02
  6.31866154E-03  0.00000000E+00  2.64673049E-02  0.00000000E+00  4.97794393E-02
  9.14947178E-02  1.49538346E-01  2.00730331E-01  1.94758647E-01  1.94087991E-02
  8.50108317E-02  2.32053887E-01 -2.62604432E-04 -2.28367948E-01 -2.24618217E-01
 -1.72178790E-01  0.00000000E+00  0.00000000E+00  0.00000000E+00 -1.05203399E-01
 -1.03475992E-01 -7.93184602E-02 -1.16059141E-01 -6.63863196E-02  0.00000000E+00
 -3.08959145E-02 -1.77691971E-02 -2.92940516E-03  0.00000000E+00 -1.44972939E-03
  1.79127775E-03  2.99408538E-04  0.00000000E+00  1.04495804E-05 -1.55448456E-02
  1.22014136E-02  6.31866154E-03  0.00000000E+00 -2.64673049E-02  0.00000000E+00
MO  7                     OCC NO =    2.0000000  ORB. ENERGY =  -1.8171458
  0.00000000E+00  0.00000000E+00  0.00000000E+00  0.00000000E+00  0.00000000E+00
  0.00000000E+00  0.00000000E+00  0.00000000E+00  0.00000000E+00  9.52921248E-02
  9.37274575E-02  7.18458210E-02  0.00000000E+00  0.00000000E+00  0.00000000E+00
  0.00000000E+00  0.00000000E+00  0.00000000E+00  0.00000000E+00  2.80367627E-02
  0.00000000E+00  0.00000000E+00  0.00000000E+00 -3.17309174E-03  0.00000000E+00
  0.00000000E+00  0.00000000E+00  1.81976836E-03  0.00000000E+00  0.00000000E+00
  0.00000000E+00  0.00000000E+00  0.00000000E+00  0.00000000E+00 -9.57897667E-03
  0.00000000E+00 -6.65204147E-02 -1.22264667E-01 -1.99828542E-01 -2.68236546E-01
 -2.60256567E-01 -2.59360367E-02 -1.13969984E-01 -3.11103623E-01  3.52061287E-04
  2.56585033E-01  2.52371986E-01  1.93453157E-01  0.00000000E+00  0.00000000E+00
  0.00000000E+00 -1.06764501E-01 -1.05011461E-01 -8.04954583E-02  1.59508619E-01
  7.56415430E-02  0.00000000E+00 -2.93747073E-02  2.83442059E-02 -3.77804306E-03
  0.00000000E+00  1.85864826E-03 -2.26869985E-02 -2.75748280E-03  0.00000000E+00
  1.13554014E-03  2.61795720E-02 -1.53749351E-02 -2.70919146E-03  0.00000000E+00
 -3.94155937E-02  0.00000000E+00  6.65204147E-02  1.22264667E-01  1.99828542E-01
  2.68236546E-01  2.60256567E-01  2.59360367E-02  1.13969984E-01  3.11103623E-01
 -3.52061287E-04  2.56585033E-01  2.52371986E-01  1.93453157E-01  0.00000000E+00
  0.00000000E+00  0.00000000E+00  1.06764501E-01  1.05011461E-01  8.04954583E-02
 -1.59508619E-01  7.56415430E-02  0.00000000E+00  2.93747073E-02 -2.83442059E-02
 -3.77804306E-03  0.00000000E+00 -1.85864826E-03  2.26869985E-02 -2.75748280E-03
  0.00000000E+00 -1.13554014E-03 -2.61795720E-02  1.53749351E-02  2.70919146E-03
  0.00000000E+00 -3.94155937E-02  0.00000000E+00 -5.89333224E-02 -1.08319575E-01
 -1.77036778E-01 -2.37642397E-01 -2.30572588E-01 -2.29778606E-02 -1.01061908E-01
 -2.75868476E-01  3.12187334E-04 -2.67293083E-01 -2.62904213E-01 -2.01526528E-01
  0.00000000E+00  0.00000000E+00  0.00000000E+00  1.24007722E-01  1.21971553E-01
  9.34960428E-02  1.38653169E-01 -7.98419327E-02  0.00000000E+00  3.77103124E-02
  2.93297607E-02 -5.89601495E-03  0.00000000E+00  2.56730129E-03  1.76090066E-02
 -1.54176585E-03  0.00000000E+00  6.47539532E-04  1.99984617E-02 -1.54599454E-02
 -7.93723164E-03  0.00000000E+00 -3.42634598E-02  0.00000000E+00  5.89333224E-02
  1.08319575E-01  1.77036778E-01  2.37642397E-01  2.30572588E-01  2.29778606E-02
  1.01061908E-01  2.75868476E-01 -3.12187334E-04 -2.67293083E-01 -2.62904213E-01
 -2.01526528E-01  0.00000000E+00  0.00000000E+00  0.00000000E+00 -1.24007722E-01
 -1.21971553E-01 -9.34960428E-02 -1.38653169E-01 -7.98419327E-02  0.00000000E+00
 -3.77103124E-02 -2.93297607E-02 -5.89601495E-03  0.00000000E+00 -2.56730129E-03
 -1.76090066E-02 -1.54176585E-03  0.00000000E+00 -6.47539532E-04 -1.99984617E-02
  1.54599454E-02  7.93723164E-03  0.00000000E+00 -3.42634598E-02  0.00000000E+00
MO  8                     OCC NO =    2.0000000  ORB. ENERGY =  -1.6228033
  8.18785597E-02  1.50492971E-01  2.45964690E-01  3.30166643E-01  3.20344258E-01
  3.19241144E-02  1.39997557E-01  3.82151035E-01 -4.32462289E-04  0.00000000E+00
  0.00000000E+00  0.00000000E+00  0.00000000E+00  0.00000000E+00  0.00000000E+00
  1.82441836E-01  1.79446197E-01  1.37552642E-01 -2.00072174E-01  0.00000000E+00
  0.00000000E+00  8.16194627E-02 -5.66968784E-02  0.00000000E+00  0.00000000E+00
  9.03201345E-03 -3.78217819E-02  0.00000000E+00  0.00000000E+00  2.34285894E-03
 -1.85691946E-02  1.53416642E-02 -1.86552813E-02  0.00000000E+00  0.00000000E+00
  0.00000000E+00  8.12171090E-03  1.49277223E-02  2.43977680E-02  3.27499413E-02
  3.17756377E-02  3.16662175E-03  1.30733290E-02  3.56862384E-02 -4.03844317E-05
  4.42024476E-01  4.34766570E-01  3.33265854E-01  0.00000000E+00  0.00000000E+00
  0.00000000E+00 -2.23537290E-01 -2.19866877E-01 -1.68536699E-01 -2.46567223E-02
  1.42314042E-01  0.00000000E+00 -7.37902100E-02 -6.39258395E-03  4.54718579E-03
  0.00000000E+00 -8.21735065E-04 -1.43371410E-02 -9.28005701E-03  0.00000000E+00
  5.07155139E-03 -1.64629474E-02 -4.38510107E-04 -7.47617314E-03  0.00000000E+00
  1.94550951E-02  0.00000000E+00  8.12171090E-03  1.49277223E-02  2.43977680E-02
  3.27499413E-02  3.17756377E-02  3.16662175E-03  1.30733290E-02  3.56862384E-02
 -4.03844317E-05 -4.42024476E-01 -4.34766570E-01 -3.33265854E-01  0.00000000E+00
  0.00000000E+00  0.00000000E+00 -2.23537290E-01 -2.19866877E-01 -1.68536699E-01
 -2.46567223E-02 -1.42314042E-01  0.00000000E+00 -7.37902100E-02 -6.39258395E-03
 -4.54718579E-03  0.00000000E+00 -8.21735065E-04 -1.43371410E-02  9.28005701E-03
  0.00000000E+00  5.07155139E-03 -1.64629474E-02 -4.38510107E-04 -7.47617314E-03
  0.00000000E+00 -1.94550951E-02  0.00000000E+00 -4.05230575E-02 -7.44814679E-02
 -1.21732006E-01 -1.63404949E-01 -1.58543687E-01 -1.57997738E-02 -7.05609967E-02
 -1.92610203E-01  2.17967876E-04 -1.66834193E-01 -1.64094827E-01 -1.25785206E-01
  0.00000000E+00  0.00000000E+00  0.00000000E+00  7.37713544E-02  7.25600515E-02
  5.56201631E-02  1.00942802E-01 -5.58520073E-02  0.00000000E+00  2.45563850E-02
  2.26651237E-02 -3.84588921E-03  0.00000000E+00  1.20681312E-03  3.34096064E-02
 -2.60662085E-03  0.00000000E+00  1.01024531E-03  2.00054879E-02 -1.16358320E-02
 -6.23280556E-03  0.00000000E+00 -2.76122131E-02  0.00000000E+00 -4.05230575E-02
 -7.44814679E-02 -1.21732006E-01 -1.63404949E-01 -1.58543687E-01 -1.57997738E-02
 -7.05609967E-02 -1.92610203E-01  2.17967876E-04  1.66834193E-01  1.64094827E-01
  1.25785206E-01  0.00000000E+00  0.00000000E+00  0.00000000E+00  7.37713544E-02
  7.25600515E-02  5.56201631E-02  1.00942802E-01  5.58520073E-02  0.00000000E+00
  2.45563850E-02  2.26651237E-02  3.84588921E-03  0.00000000E+00  1.20681312E-03
  3.34096064E-02  2.60662085E-03  0.00000000E+00  1.01024531E-03  2.00054879E-02
 -1.16358320E-02 -6.23280556E-03  0.00000000E+00  2.76122131E-02  0.00000000E+00
MO  9                     OCC NO =    2.0000000  ORB. ENERGY =  -1.2832440
  0.00000000E+00  0.00000000E+00  0.00000000E+00  0.00000000E+00  0.00000000E+00
  0.00000000E+00  0.00000000E+00  0.00000000E+00  0.00000000E+00  5.73231184E-01
  5.63818905E-01  4.32189597E-01  0.00000000E+00  0.00000000E+00  0.00000000E+00
  0.00000000E+00  0.00000000E+00  0.00000000E+00  0.00000000E+00  2.19864872E-01
  0.00000000E+00  0.00000000E+00  0.00000000E+00  8.23274860E-03  0.00000000E+00
  0.00000000E+00  0.00000000E+00  4.53898259E-03  0.00000000E+00  0.00000000E+00
  0.00000000E+00  0.00000000E+00  0.00000000E+00  0.00000000E+00 -1.14740318E-01
  0.00000000E+00 -4.46396517E-02 -8.20477771E-02 -1.34098330E-01 -1.80004680E-01
 -1.74649580E-01 -1.74048170E-02 -7.75636965E-02 -2.11725458E-01  2.39599708E-04
 -4.21968642E-01 -4.15040047E-01 -3.18144690E-01  0.00000000E+00  0.00000000E+00
  0.00000000E+00  3.32690837E-01  3.27228156E-01  2.50833386E-01  1.21269520E-01
 -1.41426584E-01  0.00000000E+00  1.16470091E-01  4.55442610E-02 -1.67232125E-02
  0.00000000E+00  1.29992612E-02 -2.04800123E-03  1.21224844E-02  0.00000000E+00